# Coordinates of a fcc lattice for 23 spheres of diameter 0.0015
1 atom types
23 atoms
-0.0007500000000000 0.0037500000000000 xlo xhi
-0.0007500000000000 0.0037500000000000 ylo yhi
-0.0007500000000000 0.0049926406871193 zlo zhi

Atoms

1 1 0.001498 2650 0.0015000000000000 0.0000000000000000 0.0000000000000000
2 1 0.001498 2650 0.0000000000000000 0.0015000000000000 0.0000000000000000
3 1 0.001498 2650 0.0015000000000000 0.0015000000000000 0.0000000000000000
4 1 0.001498 2650 0.0030000000000000 0.0015000000000000 0.0000000000000000
5 1 0.001498 2650 0.0015000000000000 0.0030000000000000 0.0000000000000000
6 1 0.001498 2650 0.0007500000000000 0.0007500000000000 0.0010606601717798
7 1 0.001498 2650 0.0022500000000000 0.0007500000000000 0.0010606601717798
8 1 0.001498 2650 0.0007500000000000 0.0022500000000000 0.0010606601717798
9 1 0.001498 2650 0.0022500000000000 0.0022500000000000 0.0010606601717798
10 1 0.001498 2650 0.0015000000000000 0.0000000000000000 0.0021213203435596
11 1 0.001498 2650 0.0000000000000000 0.0015000000000000 0.0021213203435596
12 1 0.001498 2650 0.0015000000000000 0.0015000000000000 0.0021213203435596
13 1 0.001498 2650 0.0030000000000000 0.0015000000000000 0.0021213203435596
14 1 0.001498 2650 0.0015000000000000 0.0030000000000000 0.0021213203435596
15 1 0.001498 2650 0.0007500000000000 0.0007500000000000 0.0031819805153395
16 1 0.001498 2650 0.0022500000000000 0.0007500000000000 0.0031819805153395
17 1 0.001498 2650 0.0007500000000000 0.0022500000000000 0.0031819805153395
18 1 0.001498 2650 0.0022500000000000 0.0022500000000000 0.0031819805153395
19 1 0.001498 2650 0.0015000000000000 0.0000000000000000 0.0042426406871193
20 1 0.001498 2650 0.0000000000000000 0.0015000000000000 0.0042426406871193
21 1 0.001498 2650 0.0015000000000000 0.0015000000000000 0.0042426406871193
22 1 0.001498 2650 0.0030000000000000 0.0015000000000000 0.0042426406871193
23 1 0.001498 2650 0.0015000000000000 0.0030000000000000 0.0042426406871193

Velocities

1 0 0 0 0 0 0
2 0 0 0 0 0 0
3 0 0 0 0 0 0
4 0 0 0 0 0 0
5 0 0 0 0 0 0
6 0 0 0 0 0 0
7 10 0 0 0 0 0
8 0 0 0 0 0 0
9 0 0 0 0 0 0
10 0 0 0 0 0 0
11 0 0 0 0 0 0
12 0 0 0 0 0 0
13 0 0 0 0 0 0
14 0 0 0 0 0 0
15 0 0 0 0 0 0
16 0 0 0 0 0 0
17 0 0 0 0 0 0
18 0 0 0 0 0 0
19 0 0 0 0 0 0
20 0 0 0 0 0 0
21 0 0 0 0 0 0
22 0 0 0 0 0 0
23 0 0 0 0 0 0

