ITEM: TIMESTEP
50000
ITEM: NUMBER OF ATOMS
128
ITEM: BOX BOUNDS pp pp pp
-2.0000000000000000e+01 1.3997309188270103e+02
-2.0000000000000000e+01 1.3997309188270103e+02
-2.0000000000000000e+01 2.0623611615527292e+02
ITEM: ATOMS id type x y z
1 1 -0.00336351 -0.00336351 -0.00336351
2 1 39.9899 -0.00336351 -0.00336351
3 1 79.9832 -0.00336351 -0.00336351
4 1 119.976 -0.00336351 -0.00336351
5 1 -0.00336351 39.9899 -0.00336351
6 1 39.9899 39.9899 -0.00336351
7 1 79.9832 39.9899 -0.00336351
8 1 119.976 39.9899 -0.00336351
9 1 -0.00336351 79.9832 -0.00336351
10 1 39.9899 79.9832 -0.00336351
11 1 79.9832 79.9832 -0.00336351
12 1 119.976 79.9832 -0.00336351
13 1 -0.00336351 119.976 -0.00336351
14 1 39.9899 119.976 -0.00336351
15 1 79.9832 119.976 -0.00336351
16 1 119.976 119.976 -0.00336351
17 1 19.9933 19.9933 28.2762
18 1 59.9865 19.9933 28.2762
19 1 99.9798 19.9933 28.2762
20 1 139.973 19.9933 28.2762
21 1 19.9933 59.9865 28.2762
22 1 59.9865 59.9865 28.2762
23 1 99.9798 59.9865 28.2762
24 1 139.973 59.9865 28.2762
25 1 19.9933 99.9798 28.2762
26 1 59.9865 99.9798 28.2762
27 1 99.9798 99.9798 28.2762
28 1 139.973 99.9798 28.2762
29 1 19.9933 139.973 28.2762
30 1 59.9865 139.973 28.2762
31 1 99.9798 139.973 28.2762
32 1 139.973 139.973 28.2762
33 1 -0.00336351 -0.00336351 56.5557
34 1 39.9899 -0.00336351 56.5557
35 1 79.9832 -0.00336351 56.5557
36 1 119.976 -0.00336351 56.5557
37 1 -0.00336351 39.9899 56.5557
38 1 39.9899 39.9899 56.5557
39 1 79.9832 39.9899 56.5557
40 1 119.976 39.9899 56.5557
41 1 -0.00336351 79.9832 56.5557
42 1 39.9899 79.9832 56.5557
43 1 79.9832 79.9832 56.5557
44 1 119.976 79.9832 56.5557
45 1 -0.00336351 119.976 56.5557
46 1 39.9899 119.976 56.5557
47 1 79.9832 119.976 56.5557
48 1 119.976 119.976 56.5557
63 1 99.9798 -20 84.8352
49 1 19.9933 19.9933 84.8352
50 1 59.9865 19.9933 84.8352
51 1 99.9798 19.9933 84.8352
52 1 139.973 19.9933 84.8352
53 1 19.9933 59.9865 84.8352
54 1 59.9865 59.9865 84.8352
55 1 99.9798 59.9865 84.8352
56 1 139.973 59.9865 84.8352
57 1 19.9933 99.9798 84.8352
58 1 59.9865 99.9798 84.8352
59 1 99.9798 99.9798 84.8352
60 1 139.973 99.9798 84.8352
61 1 19.9933 139.973 84.8352
62 1 59.9865 139.973 84.8352
64 1 139.973 139.973 84.8352
65 1 -0.00336351 -0.00336351 113.115
66 1 39.9899 -0.00336351 113.115
67 1 79.9832 -0.00336351 113.115
68 1 119.976 -0.00336351 113.115
69 1 -0.00336351 39.9899 113.115
70 1 39.9899 39.9899 113.115
71 1 79.9832 39.9899 113.115
72 1 119.976 39.9899 113.115
73 1 -0.00336351 79.9832 113.115
74 1 39.9899 79.9832 113.115
75 1 79.9832 79.9832 113.115
76 1 119.976 79.9832 113.115
77 1 -0.00336351 119.976 113.115
78 1 39.9899 119.976 113.115
79 1 79.9832 119.976 113.115
80 1 119.976 119.976 113.115
96 1 -20 -20 141.394
93 1 19.9933 -20 141.394
95 1 99.9798 -20 141.394
81 1 19.9933 19.9933 141.394
82 1 59.9865 19.9933 141.394
83 1 99.9798 19.9933 141.394
84 1 139.973 19.9933 141.394
88 1 -20 59.9865 141.394
85 1 19.9933 59.9865 141.394
86 1 59.9865 59.9865 141.394
87 1 99.9798 59.9865 141.394
89 1 19.9933 99.9798 141.394
90 1 59.9865 99.9798 141.394
91 1 99.9798 99.9798 141.394
92 1 139.973 99.9798 141.394
94 1 59.9865 139.973 141.394
97 1 -0.00336351 -0.00336351 169.674
98 1 39.9899 -0.00336351 169.674
99 1 79.9832 -0.00336351 169.674
100 1 119.976 -0.00336351 169.674
101 1 -0.00336351 39.9899 169.674
102 1 39.9899 39.9899 169.674
103 1 79.9832 39.9899 169.674
104 1 119.976 39.9899 169.674
105 1 -0.00336351 79.9832 169.674
106 1 39.9899 79.9832 169.674
107 1 79.9832 79.9832 169.674
108 1 119.976 79.9832 169.674
109 1 -0.00336351 119.976 169.674
110 1 39.9899 119.976 169.674
111 1 79.9832 119.976 169.674
112 1 119.976 119.976 169.674
127 1 99.9798 -20 197.953
116 1 -20 19.9933 197.953
113 1 19.9933 19.9933 197.953
114 1 59.9865 19.9933 197.953
115 1 99.9798 19.9933 197.953
120 1 -20 59.9865 197.953
117 1 19.9933 59.9865 197.953
118 1 59.9865 59.9865 197.953
119 1 99.9798 59.9865 197.953
121 1 19.9933 99.9798 197.953
122 1 59.9865 99.9798 197.953
123 1 99.9798 99.9798 197.953
124 1 139.973 99.9798 197.953
128 1 -20 139.973 197.953
125 1 19.9933 139.973 197.953
126 1 59.9865 139.973 197.953
ITEM: TIMESTEP
60000
ITEM: NUMBER OF ATOMS
128
ITEM: BOX BOUNDS pp pp pp
-2.0000000000000000e+01 1.4000024419510345e+02
-2.0000000000000000e+01 1.4000024419510345e+02
-2.0000000000000000e+01 2.0612733672586214e+02
ITEM: ATOMS id type x y z
1 1 3.05244e-05 3.05244e-05 -0.0129783
2 1 40.0001 3.05244e-05 -0.0129783
3 1 80.0002 3.05244e-05 -0.0129783
4 1 120 3.05244e-05 -0.0129783
5 1 3.05244e-05 40.0001 -0.0129783
6 1 40.0001 40.0001 -0.0129783
7 1 80.0002 40.0001 -0.0129783
8 1 120 40.0001 -0.0129783
9 1 3.05244e-05 80.0002 -0.0129783
10 1 40.0001 80.0002 -0.0129783
11 1 80.0002 80.0002 -0.0129783
12 1 120 80.0002 -0.0129783
13 1 3.05244e-05 120 -0.0129783
14 1 40.0001 120 -0.0129783
15 1 80.0002 120 -0.0129783
16 1 120 120 -0.0129783
17 1 20.0001 20.0001 28.2529
18 1 60.0001 20.0001 28.2529
19 1 100 20.0001 28.2529
20 1 140 20.0001 28.2529
21 1 20.0001 60.0001 28.2529
22 1 60.0001 60.0001 28.2529
23 1 100 60.0001 28.2529
24 1 140 60.0001 28.2529
25 1 20.0001 100 28.2529
26 1 60.0001 100 28.2529
27 1 100 100 28.2529
28 1 140 100 28.2529
29 1 20.0001 140 28.2529
30 1 60.0001 140 28.2529
31 1 100 140 28.2529
32 1 140 140 28.2529
33 1 3.05244e-05 3.05244e-05 56.5189
34 1 40.0001 3.05244e-05 56.5189
35 1 80.0002 3.05244e-05 56.5189
36 1 120 3.05244e-05 56.5189
37 1 3.05244e-05 40.0001 56.5189
38 1 40.0001 40.0001 56.5189
39 1 80.0002 40.0001 56.5189
40 1 120 40.0001 56.5189
41 1 3.05244e-05 80.0002 56.5189
42 1 40.0001 80.0002 56.5189
43 1 80.0002 80.0002 56.5189
44 1 120 80.0002 56.5189
45 1 3.05244e-05 120 56.5189
46 1 40.0001 120 56.5189
47 1 80.0002 120 56.5189
48 1 120 120 56.5189
63 1 100 -20 84.7848
49 1 20.0001 20.0001 84.7848
50 1 60.0001 20.0001 84.7848
51 1 100 20.0001 84.7848
52 1 140 20.0001 84.7848
53 1 20.0001 60.0001 84.7848
54 1 60.0001 60.0001 84.7848
55 1 100 60.0001 84.7848
56 1 140 60.0001 84.7848
57 1 20.0001 100 84.7848
58 1 60.0001 100 84.7848
59 1 100 100 84.7848
60 1 140 100 84.7848
61 1 20.0001 140 84.7848
62 1 60.0001 140 84.7848
64 1 140 140 84.7848
65 1 3.05244e-05 3.05244e-05 113.051
66 1 40.0001 3.05244e-05 113.051
67 1 80.0002 3.05244e-05 113.051
68 1 120 3.05244e-05 113.051
69 1 3.05244e-05 40.0001 113.051
70 1 40.0001 40.0001 113.051
71 1 80.0002 40.0001 113.051
72 1 120 40.0001 113.051
73 1 3.05244e-05 80.0002 113.051
74 1 40.0001 80.0002 113.051
75 1 80.0002 80.0002 113.051
76 1 120 80.0002 113.051
77 1 3.05244e-05 120 113.051
78 1 40.0001 120 113.051
79 1 80.0002 120 113.051
80 1 120 120 113.051
96 1 -20 -20 141.317
93 1 20.0001 -20 141.317
95 1 100 -20 141.317
81 1 20.0001 20.0001 141.317
82 1 60.0001 20.0001 141.317
83 1 100 20.0001 141.317
84 1 140 20.0001 141.317
88 1 -20 60.0001 141.317
85 1 20.0001 60.0001 141.317
86 1 60.0001 60.0001 141.317
87 1 100 60.0001 141.317
89 1 20.0001 100 141.317
90 1 60.0001 100 141.317
91 1 100 100 141.317
92 1 140 100 141.317
94 1 60.0001 140 141.317
97 1 3.05244e-05 3.05244e-05 169.583
98 1 40.0001 3.05244e-05 169.583
99 1 80.0002 3.05244e-05 169.583
100 1 120 3.05244e-05 169.583
101 1 3.05244e-05 40.0001 169.583
102 1 40.0001 40.0001 169.583
103 1 80.0002 40.0001 169.583
104 1 120 40.0001 169.583
105 1 3.05244e-05 80.0002 169.583
106 1 40.0001 80.0002 169.583
107 1 80.0002 80.0002 169.583
108 1 120 80.0002 169.583
109 1 3.05244e-05 120 169.583
110 1 40.0001 120 169.583
111 1 80.0002 120 169.583
112 1 120 120 169.583
127 1 100 -20 197.848
116 1 -20 20.0001 197.848
113 1 20.0001 20.0001 197.848
114 1 60.0001 20.0001 197.848
115 1 100 20.0001 197.848
120 1 -20 60.0001 197.848
117 1 20.0001 60.0001 197.848
118 1 60.0001 60.0001 197.848
119 1 100 60.0001 197.848
121 1 20.0001 100 197.848
122 1 60.0001 100 197.848
123 1 100 100 197.848
124 1 140 100 197.848
128 1 -20 140 197.848
125 1 20.0001 140 197.848
126 1 60.0001 140 197.848
ITEM: TIMESTEP
70000
ITEM: NUMBER OF ATOMS
128
ITEM: BOX BOUNDS pp pp pp
-2.0000000000000000e+01 1.4007712934030889e+02
-2.0000000000000000e+01 1.4007712934030889e+02
-2.0000000000000000e+01 2.0601855729645135e+02
ITEM: ATOMS id type x y z
1 1 0.00964117 0.00964117 -0.0225932
2 1 40.0289 0.00964117 -0.0225932
3 1 80.0482 0.00964117 -0.0225932
4 1 120.067 0.00964117 -0.0225932
5 1 0.00964117 40.0289 -0.0225932
6 1 40.0289 40.0289 -0.0225932
7 1 80.0482 40.0289 -0.0225932
8 1 120.067 40.0289 -0.0225932
9 1 0.00964117 80.0482 -0.0225932
10 1 40.0289 80.0482 -0.0225932
11 1 80.0482 80.0482 -0.0225932
12 1 120.067 80.0482 -0.0225932
13 1 0.00964117 120.067 -0.0225932
14 1 40.0289 120.067 -0.0225932
15 1 80.0482 120.067 -0.0225932
16 1 120.067 120.067 -0.0225932
17 1 20.0193 20.0193 28.2297
18 1 60.0386 20.0193 28.2297
19 1 100.058 20.0193 28.2297
20 1 140.077 20.0193 28.2297
21 1 20.0193 60.0386 28.2297
22 1 60.0386 60.0386 28.2297
23 1 100.058 60.0386 28.2297
24 1 140.077 60.0386 28.2297
25 1 20.0193 100.058 28.2297
26 1 60.0386 100.058 28.2297
27 1 100.058 100.058 28.2297
28 1 140.077 100.058 28.2297
29 1 20.0193 140.077 28.2297
30 1 60.0386 140.077 28.2297
31 1 100.058 140.077 28.2297
32 1 140.077 140.077 28.2297
33 1 0.00964117 0.00964117 56.482
34 1 40.0289 0.00964117 56.482
35 1 80.0482 0.00964117 56.482
36 1 120.067 0.00964117 56.482
37 1 0.00964117 40.0289 56.482
38 1 40.0289 40.0289 56.482
39 1 80.0482 40.0289 56.482
40 1 120.067 40.0289 56.482
41 1 0.00964117 80.0482 56.482
42 1 40.0289 80.0482 56.482
43 1 80.0482 80.0482 56.482
44 1 120.067 80.0482 56.482
45 1 0.00964117 120.067 56.482
46 1 40.0289 120.067 56.482
47 1 80.0482 120.067 56.482
48 1 120.067 120.067 56.482
63 1 100.058 -20 84.7344
49 1 20.0193 20.0193 84.7344
50 1 60.0386 20.0193 84.7344
51 1 100.058 20.0193 84.7344
52 1 140.077 20.0193 84.7344
53 1 20.0193 60.0386 84.7344
54 1 60.0386 60.0386 84.7344
55 1 100.058 60.0386 84.7344
56 1 140.077 60.0386 84.7344
57 1 20.0193 100.058 84.7344
58 1 60.0386 100.058 84.7344
59 1 100.058 100.058 84.7344
60 1 140.077 100.058 84.7344
61 1 20.0193 140.077 84.7344
62 1 60.0386 140.077 84.7344
64 1 140.077 140.077 84.7344
65 1 0.00964117 0.00964117 112.987
66 1 40.0289 0.00964117 112.987
67 1 80.0482 0.00964117 112.987
68 1 120.067 0.00964117 112.987
69 1 0.00964117 40.0289 112.987
70 1 40.0289 40.0289 112.987
71 1 80.0482 40.0289 112.987
72 1 120.067 40.0289 112.987
73 1 0.00964117 80.0482 112.987
74 1 40.0289 80.0482 112.987
75 1 80.0482 80.0482 112.987
76 1 120.067 80.0482 112.987
77 1 0.00964117 120.067 112.987
78 1 40.0289 120.067 112.987
79 1 80.0482 120.067 112.987
80 1 120.067 120.067 112.987
96 1 -20 -20 141.239
93 1 20.0193 -20 141.239
95 1 100.058 -20 141.239
81 1 20.0193 20.0193 141.239
82 1 60.0386 20.0193 141.239
83 1 100.058 20.0193 141.239
84 1 140.077 20.0193 141.239
88 1 -20 60.0386 141.239
85 1 20.0193 60.0386 141.239
86 1 60.0386 60.0386 141.239
87 1 100.058 60.0386 141.239
89 1 20.0193 100.058 141.239
90 1 60.0386 100.058 141.239
91 1 100.058 100.058 141.239
92 1 140.077 100.058 141.239
94 1 60.0386 140.077 141.239
97 1 0.00964117 0.00964117 169.491
98 1 40.0289 0.00964117 169.491
99 1 80.0482 0.00964117 169.491
100 1 120.067 0.00964117 169.491
101 1 0.00964117 40.0289 169.491
102 1 40.0289 40.0289 169.491
103 1 80.0482 40.0289 169.491
104 1 120.067 40.0289 169.491
105 1 0.00964117 80.0482 169.491
106 1 40.0289 80.0482 169.491
107 1 80.0482 80.0482 169.491
108 1 120.067 80.0482 169.491
109 1 0.00964117 120.067 169.491
110 1 40.0289 120.067 169.491
111 1 80.0482 120.067 169.491
112 1 120.067 120.067 169.491
127 1 100.058 -20 197.744
116 1 -20 20.0193 197.744
113 1 20.0193 20.0193 197.744
114 1 60.0386 20.0193 197.744
115 1 100.058 20.0193 197.744
120 1 -20 60.0386 197.744
117 1 20.0193 60.0386 197.744
118 1 60.0386 60.0386 197.744
119 1 100.058 60.0386 197.744
121 1 20.0193 100.058 197.744
122 1 60.0386 100.058 197.744
123 1 100.058 100.058 197.744
124 1 140.077 100.058 197.744
128 1 -20 140.077 197.744
125 1 20.0193 140.077 197.744
126 1 60.0386 140.077 197.744
