# Coordinates of a fcc lattice for 8 spheres of diameter 0.0015
1 atom types
8 atoms
-0.0007500000000000 0.0022500000000000 xlo xhi
-0.0007500000000000 0.0022500000000000 ylo yhi
-0.0007500000000000 0.0013713203435596 zlo zhi
 
Atoms
 
1 1 0.001500 2650 0.0000000000000000 0.0000000000000000 0.0000000000000000
2 1 0.001500 2650 0.0015000000000000 0.0000000000000000 0.0000000000000000
3 1 0.001500 2650 0.0000000000000000 0.0015000000000000 0.0000000000000000
4 1 0.001500 2650 0.0015000000000000 0.0015000000000000 0.0000000000000000
5 1 0.001500 2650 0.0007500000000000 0.0007500000000000 0.0010606601717798
6 1 0.001500 2650 0.0022500000000000 0.0007500000000000 0.0010606601717798
7 1 0.001500 2650 0.0007500000000000 0.0022500000000000 0.0010606601717798
8 1 0.001500 2650 0.0022500000000000 0.0022500000000000 0.0010606601717798
 
Velocities
 
1 0 0 0 0 0 0
2 0 0 0 0 0 0
3 0 0 0 0 0 0
4 0 0 0 0 0 0
5 0 0 0 0 0 0
6 0 0 0 0 0 0
7 0 0 0 0 0 0
8 0 0 0 0 0 0
