ITEM: TIMESTEP
700000
ITEM: NUMBER OF ATOMS
23
ITEM: BOX BOUNDS pp pp pp
-7.5000000000000002e-04 3.7496850001075104e-03
-7.5000000000000002e-04 3.7503149998924894e-03
-7.5000000000000002e-04 4.9922386770100708e-03
ITEM: ATOMS c_2[1] c_2[2] c_2[3]
5.93052e-09 8.95871e-09 3.02819e-09
2.99641e-07 2.6873e-06 2.38766e-06
9.11489e-06 9.38002e-06 2.65133e-07
1.14043e-06 2.07669e-06 9.36259e-07
1.93439e-08 2.40135e-08 4.66962e-09
0 0 0
4.00342e-05 5.89113e-05 1.88771e-05
5.98915e-07 6.37866e-07 3.89513e-08
2.05482e-06 2.31238e-06 2.57568e-07
1.38459e-08 1.94497e-08 5.60386e-09
6.48984e-07 2.07012e-06 1.42114e-06
2.46202e-06 2.74604e-06 2.84015e-07
9.80993e-07 2.68795e-06 1.70695e-06
9.39383e-08 9.76934e-08 3.75513e-09
2.29205e-07 2.43828e-07 1.46234e-08
3.73018e-07 4.29534e-07 5.65159e-08
5.55689e-07 6.36314e-07 8.0625e-08
1.16109e-06 2.6693e-06 1.50821e-06
2.04179e-07 2.61963e-07 5.77841e-08
2.26632e-06 3.33498e-06 1.06866e-06
4.9348e-07 5.54005e-07 6.05251e-08
1.42619e-06 2.20184e-06 7.75646e-07
2.23099e-06 2.25986e-06 2.88714e-08
