ITEM: TIMESTEP
100000
ITEM: NUMBER OF ENTRIES
2
ITEM: BOX BOUNDS pp pp pp
-7.5000000000000002e-04 3.7499550000153585e-03
-7.5000000000000002e-04 3.7500449999846412e-03
-7.5000000000000002e-04 4.9925832571036961e-03
ITEM: ENTRIES c_1[5] c_1[6] c_1[15] c_1[16] c_1[17] 
4 7 9.06065e-06 1.32166e-05 3.71714e-06 
7 13 9.06065e-06 1.32166e-05 3.71714e-06 
