ITEM: TIMESTEP
1000000
ITEM: NUMBER OF ATOMS
23
ITEM: BOX BOUNDS pp pp pp
-7.5000000000000002e-04 3.7495500001535863e-03
-7.5000000000000002e-04 3.7504499998464134e-03
-7.5000000000000002e-04 4.9920663869632582e-03
ITEM: ATOMS c_2[1] c_2[2] c_2[3]
2.93706e-07 3.66195e-07 7.24891e-08
5.60558e-08 1.79642e-06 1.74037e-06
1.22768e-07 6.57343e-07 5.34575e-07
2.87678e-06 3.42907e-06 5.52291e-07
9.57014e-07 9.63818e-07 6.80448e-09
3.77308e-08 5.68255e-08 1.90947e-08
3.51565e-05 5.40336e-05 1.88771e-05
1.31319e-07 3.07174e-07 1.75855e-07
5.87066e-06 6.56162e-06 6.90962e-07
1.26655e-07 1.32119e-07 5.46421e-09
2.76354e-07 4.93868e-07 2.17515e-07
3.08942e-07 7.46409e-07 4.37467e-07
6.0086e-07 1.35675e-06 7.55894e-07
1.62717e-07 3.39509e-07 1.76792e-07
7.77994e-07 8.7053e-07 9.25362e-08
2.28396e-06 2.34958e-06 6.56162e-08
2.86686e-06 4.55089e-06 1.68403e-06
1.23076e-06 1.7239e-06 4.93136e-07
6.39171e-07 6.64187e-07 2.50161e-08
2.26146e-08 6.27909e-07 6.05294e-07
6.06509e-07 7.45535e-07 1.39027e-07
4.23726e-07 4.97767e-07 7.40406e-08
1.46562e-07 1.66617e-07 2.00556e-08
