ITEM: TIMESTEP
500000
ITEM: NUMBER OF ATOMS
23
ITEM: BOX BOUNDS pp pp pp
-7.5000000000000002e-04 3.7497750000767931e-03
-7.5000000000000002e-04 3.7502249999232067e-03
-7.5000000000000002e-04 4.9923535370412792e-03
ITEM: ATOMS c_2[1] c_2[2] c_2[3]
0 0 0
8.36075e-06 1.01553e-05 1.79454e-06
3.67636e-06 4.6836e-06 1.00724e-06
1.05785e-06 1.89032e-06 8.32473e-07
0 0 0
0 0 0
4.36565e-05 6.25335e-05 1.88771e-05
3.22307e-07 3.77478e-07 5.5171e-08
1.90103e-10 2.26252e-10 3.61485e-11
0 0 0
3.08286e-06 4.24536e-06 1.16249e-06
2.77464e-06 3.70766e-06 9.33023e-07
1.28436e-06 1.96672e-06 6.82361e-07
0 0 0
7.29959e-07 1.09355e-06 3.63594e-07
5.84178e-08 8.06386e-08 2.22207e-08
2.74205e-06 4.08806e-06 1.34601e-06
9.35257e-07 1.08827e-06 1.53015e-07
2.62233e-12 3.93617e-12 1.31384e-12
2.45333e-07 3.6891e-07 1.23577e-07
2.67002e-11 4.00813e-11 1.33811e-11
3.47479e-06 3.74334e-06 2.68549e-07
1.76932e-09 2.91911e-09 1.14979e-09
