ITEM: TIMESTEP
400000
ITEM: NUMBER OF ENTRIES
13
ITEM: BOX BOUNDS pp pp pp
-7.5000000000000002e-04 3.7498200000614344e-03
-7.5000000000000002e-04 3.7501799999385653e-03
-7.5000000000000002e-04 4.9924109670568834e-03
ITEM: ENTRIES c_1[5] c_1[6] c_1[15] c_1[16] c_1[17] 
2 20 3.3229e-07 1.54574e-07 4.34738e-08 
2 4 9.10488e-06 6.33573e-06 8.48049e-07 
2 3 5.04725e-08 2.03127e-06 5.48747e-07 
2 8 5.47653e-08 9.95087e-08 2.79867e-08 
4 22 5.15157e-08 3.23573e-06 2.43772e-07 
8 11 4.37873e-08 8.17387e-08 2.29889e-08 
11 13 1.13789e-05 6.83942e-06 1.76678e-06 
11 12 5.35285e-08 1.78832e-06 4.9457e-07 
11 15 3.30971e-07 5.1436e-07 1.44663e-07 
11 17 1.04728e-06 1.55369e-06 4.36973e-07 
13 18 1.84989e-10 1.08948e-06 1.96862e-07 
16 22 5.27132e-13 3.44717e-08 7.0995e-09 
18 22 1.19879e-07 2.43803e-07 6.85692e-08 
