ITEM: TIMESTEP
100000
ITEM: NUMBER OF ATOMS
23
ITEM: BOX BOUNDS pp pp pp
-7.5000000000000002e-04 3.7499550000153585e-03
-7.5000000000000002e-04 3.7500449999846412e-03
-7.5000000000000002e-04 4.9925832571036961e-03
ITEM: ATOMS c_2[1] c_2[2] c_2[3]
0 0 0
0 0 0
0 0 0
1.61786e-06 2.40437e-06 7.86512e-07
0 0 0
0 0 0
0.000165562 0.000166615 1.05306e-06
0 0 0
0 0 0
0 0 0
0 0 0
0 0 0
1.61786e-06 2.40437e-06 7.86512e-07
0 0 0
0 0 0
0 0 0
0 0 0
0 0 0
0 0 0
0 0 0
0 0 0
0 0 0
0 0 0
