ITEM: TIMESTEP
500000
ITEM: NUMBER OF ENTRIES
24
ITEM: BOX BOUNDS pp pp pp
-7.5000000000000002e-04 3.7497750000767931e-03
-7.5000000000000002e-04 3.7502249999232067e-03
-7.5000000000000002e-04 4.9923535370412792e-03
ITEM: ENTRIES c_1[5] c_1[6] c_1[15] c_1[16] c_1[17] 
2 20 1.95059e-06 1.02514e-06 2.88319e-07 
2 4 1.03773e-05 5.79067e-07 3.57311e-07 
2 3 5.04725e-08 7.26851e-06 3.07878e-07 
2 8 4.11712e-07 5.09253e-07 1.43227e-07 
3 9 9.17055e-09 1.44841e-08 4.0736e-09 
4 22 9.74332e-07 4.4982e-07 1.71986e-07 
8 9 3.73136e-14 1.16124e-13 3.26413e-14 
8 11 2.1104e-07 2.45257e-07 6.89783e-08 
9 12 6.49305e-09 1.01611e-08 2.85778e-09 
11 13 1.13789e-05 1.95836e-06 3.11452e-07 
11 12 5.35285e-08 4.31369e-06 2.84305e-07 
11 15 9.24758e-07 1.58798e-06 4.375e-07 
11 17 2.60674e-06 5.48567e-06 1.38357e-06 
12 16 5.24558e-10 1.07474e-09 3.02264e-10 
13 18 1.84989e-10 1.83695e-06 1.2577e-07 
15 16 1.15222e-09 1.71746e-09 4.83029e-10 
15 19 2.00668e-10 2.09612e-09 5.89525e-10 
15 21 3.60779e-13 5.17189e-13 1.45414e-13 
16 22 5.27132e-13 4.58517e-07 1.06198e-07 
17 18 5.2772e-08 1.39644e-07 3.92747e-08 
17 21 5.25618e-09 7.95701e-09 2.23789e-09 
17 23 3.69456e-09 5.04901e-08 1.42002e-08 
18 22 8.44603e-07 1.5697e-06 4.41476e-07 
18 23 2.51703e-10 3.67022e-08 9.36996e-09 
