ITEM: TIMESTEP
800000
ITEM: NUMBER OF ENTRIES
37
ITEM: BOX BOUNDS pp pp pp
-7.5000000000000002e-04 3.7496400001228690e-03
-7.5000000000000002e-04 3.7503599998771307e-03
-7.5000000000000002e-04 4.9921812469944666e-03
ITEM: ENTRIES c_1[5] c_1[6] c_1[15] c_1[16] c_1[17] 
1 19 1.47573e-09 1.85697e-08 5.2227e-09 
1 5 6.54309e-11 3.48457e-10 9.80014e-11 
1 3 5.49998e-07 6.70696e-08 1.88633e-08 
2 20 2.90004e-06 2.35852e-09 2.19961e-08 
2 4 1.0825e-05 1.6729e-08 1.99153e-07 
2 8 7.96015e-07 2.31988e-09 5.13848e-09 
3 21 7.79108e-10 7.45233e-10 2.09589e-10 
3 4 2.365e-20 3.83997e-07 4.10104e-08 
3 9 1.01666e-06 6.90105e-07 6.7866e-08 
4 22 2.21213e-08 3.06818e-09 8.6292e-10 
5 23 1.43336e-08 7.68625e-07 1.70494e-07 
5 8 1.19743e-07 1.87049e-07 5.07733e-08 
8 11 5.5916e-07 5.44604e-08 1.53167e-08 
8 14 2.97968e-10 2.67251e-07 8.32272e-09 
9 12 4.55555e-07 3.59854e-07 2.80135e-08 
10 14 3.41511e-21 2.71349e-08 5.45592e-09 
10 12 2.72378e-07 3.92957e-08 1.10519e-08 
10 15 4.48281e-09 8.33415e-09 8.717e-10 
10 16 4.86323e-08 4.44338e-09 1.24965e-09 
11 13 1.1386e-05 4.49316e-07 3.09077e-07 
11 17 3.11092e-06 8.32104e-08 1.86283e-07 
12 16 8.57306e-07 6.89333e-07 1.71378e-07 
13 18 4.35787e-07 1.07952e-06 2.66676e-07 
14 17 2.35664e-07 9.85842e-10 2.77193e-10 
14 18 3.88851e-07 7.5128e-08 2.11297e-08 
15 16 3.42166e-07 1.67937e-07 3.93808e-08 
15 19 1.71992e-08 1.73719e-07 5.289e-08 
15 20 3.51455e-07 5.41931e-07 1.48475e-07 
16 22 3.85299e-07 5.55334e-09 -3.44321e-09 
17 18 8.5617e-07 1.68635e-06 4.54207e-07 
17 20 1.67177e-07 1.08111e-06 1.97579e-07 
17 23 1.78141e-07 8.44358e-08 5.2584e-08 
18 22 1.75188e-06 1.51814e-07 7.03354e-08 
18 23 7.62579e-07 3.40275e-08 -5.67313e-10 
19 23 9.74979e-09 6.11502e-07 1.51629e-07 
20 22 4.18187e-09 1.12833e-07 2.82964e-08 
20 21 1.96982e-07 5.51154e-09 1.55011e-09 
