ITEM: TIMESTEP
200000
ITEM: NUMBER OF ENTRIES
6
ITEM: BOX BOUNDS pp pp pp
-7.5000000000000002e-04 3.7499100000307171e-03
-7.5000000000000002e-04 3.7500899999692826e-03
-7.5000000000000002e-04 4.9925258270880919e-03
ITEM: ENTRIES c_1[5] c_1[6] c_1[15] c_1[16] c_1[17] 
2 4 9.31111e-07 1.17354e-06 3.30056e-07 
4 22 2.09787e-08 2.72842e-07 7.67363e-08 
4 7 1.7203e-05 1.63213e-05 3.88244e-06 
7 13 1.72134e-05 1.62406e-05 3.88256e-06 
11 13 9.39368e-07 1.17083e-06 3.29295e-07 
13 18 2.63353e-11 1.821e-10 5.12138e-11 
