ITEM: TIMESTEP
300000
ITEM: NUMBER OF ATOMS
23
ITEM: BOX BOUNDS pp pp pp
-7.5000000000000002e-04 3.7498650000460758e-03
-7.5000000000000002e-04 3.7501349999539239e-03
-7.5000000000000002e-04 4.9924683970724876e-03
ITEM: ATOMS c_2[1] c_2[2] c_2[3]
0 0 0
3.13458e-06 4.67386e-06 1.53928e-06
1.18123e-10 1.77288e-10 5.91657e-11
1.73982e-05 2.24514e-05 5.0532e-06
0 0 0
0 0 0
4.64533e-05 6.60015e-05 1.95483e-05
0 0 0
0 0 0
0 0 0
3.07108e-06 4.58067e-06 1.5096e-06
1.16112e-10 1.74272e-10 5.81597e-11
2.1903e-05 2.73604e-05 5.45739e-06
0 0 0
3.32404e-12 4.98876e-12 1.66472e-12
0 0 0
6.6478e-11 9.97782e-11 3.33002e-11
4.38114e-09 4.50029e-09 1.19156e-10
0 0 0
6.92266e-17 1.0385e-16 3.46233e-17
0 0 0
6.78162e-07 9.93964e-07 3.15801e-07
0 0 0
