ITEM: TIMESTEP
400000
ITEM: NUMBER OF ATOMS
23
ITEM: BOX BOUNDS pp pp pp
-7.5000000000000002e-04 3.7498200000614344e-03
-7.5000000000000002e-04 3.7501799999385653e-03
-7.5000000000000002e-04 4.9924109670568834e-03
ITEM: ATOMS c_2[1] c_2[2] c_2[3]
0 0 0
1.3644e-05 1.95526e-05 5.90855e-06
1.87052e-07 2.79859e-07 9.28076e-08
1.3167e-06 2.13596e-06 8.19257e-07
0 0 0
0 0 0
4.55887e-05 6.44658e-05 1.88771e-05
8.51568e-09 1.07078e-08 2.19209e-09
0 0 0
0 0 0
1.08273e-05 1.60453e-05 5.218e-06
1.71178e-07 2.5647e-07 8.52925e-08
5.53091e-06 6.3633e-06 8.3239e-07
0 0 0
3.20385e-08 4.81044e-08 1.60659e-08
4.49576e-10 6.36713e-10 1.87138e-10
1.33129e-07 1.99603e-07 6.64733e-08
1.84173e-07 2.25126e-07 4.09531e-08
0 0 0
5.15075e-09 7.7388e-09 2.58805e-09
0 0 0
3.86338e-06 4.71704e-06 8.53656e-07
0 0 0
