ITEM: TIMESTEP
600000
ITEM: NUMBER OF ATOMS
23
ITEM: BOX BOUNDS pp pp pp
-7.5000000000000002e-04 3.7497300000921517e-03
-7.5000000000000002e-04 3.7502699999078480e-03
-7.5000000000000002e-04 4.9922961070256750e-03
ITEM: ATOMS c_2[1] c_2[2] c_2[3]
3.08462e-10 4.64124e-10 1.55662e-10
7.72499e-07 2.69106e-06 1.91857e-06
1.03183e-05 1.06524e-05 3.34058e-07
1.15339e-06 2.04759e-06 8.94209e-07
2.1458e-10 3.22506e-10 1.07926e-10
0 0 0
4.18061e-05 6.06832e-05 1.88771e-05
1.03333e-06 1.13628e-06 1.02952e-07
1.49118e-07 1.66498e-07 1.73803e-08
2.52181e-10 3.65548e-10 1.13367e-10
5.4183e-07 1.23453e-06 6.92701e-07
5.11724e-06 5.58625e-06 4.6901e-07
6.52171e-07 1.90648e-06 1.25431e-06
2.24676e-09 2.27041e-09 2.36508e-11
1.41538e-06 1.79401e-06 3.78639e-07
3.19202e-07 4.67551e-07 1.48349e-07
3.76209e-06 4.45309e-06 6.91001e-07
1.604e-06 2.32479e-06 7.20794e-07
1.26493e-08 1.88705e-08 6.22123e-09
1.45327e-06 2.19094e-06 7.37664e-07
4.19166e-08 4.98256e-08 7.90904e-09
7.39848e-07 1.47376e-06 7.33912e-07
2.96415e-07 3.88438e-07 9.20229e-08
