ITEM: TIMESTEP
300000
ITEM: NUMBER OF ENTRIES
12
ITEM: BOX BOUNDS pp pp pp
-7.5000000000000002e-04 3.7498650000460758e-03
-7.5000000000000002e-04 3.7501349999539239e-03
-7.5000000000000002e-04 4.9924683970724876e-03
ITEM: ENTRIES c_1[5] c_1[6] c_1[15] c_1[16] c_1[17] 
2 20 2.12359e-11 9.23415e-12 2.59679e-12 
2 4 7.61979e-06 8.94551e-06 2.51592e-06 
2 3 2.37847e-09 2.68397e-08 7.54859e-09 
4 22 5.15157e-08 3.1414e-06 6.75903e-07 
4 7 1.95537e-05 1.11337e-06 6.70683e-07 
7 13 1.93181e-05 8.09624e-07 5.99756e-07 
11 13 8.28048e-06 8.82359e-06 2.48163e-06 
11 12 2.35285e-09 2.64306e-08 7.43353e-09 
11 15 1.99774e-09 3.02379e-09 8.50427e-10 
11 17 1.35435e-08 1.85839e-08 5.22667e-09 
13 18 1.84989e-10 1.54765e-07 5.83709e-09 
18 22 2.4692e-11 5.20989e-11 1.46518e-11 
