ITEM: TIMESTEP
900000
ITEM: NUMBER OF ENTRIES
29
ITEM: BOX BOUNDS pp pp pp
-7.5000000000000002e-04 3.7495950001382276e-03
-7.5000000000000002e-04 3.7504049998617721e-03
-7.5000000000000002e-04 4.9921238169788624e-03
ITEM: ENTRIES c_1[5] c_1[6] c_1[15] c_1[16] c_1[17] 
1 19 6.78657e-08 1.76969e-07 4.97724e-08 
1 5 2.58005e-08 7.49747e-08 2.10865e-08 
1 3 8.59672e-07 1.33845e-07 3.76439e-08 
2 4 1.08413e-05 6.72984e-08 2.13376e-07 
2 8 8.0719e-07 1.41185e-09 4.8831e-09 
3 21 1.86226e-07 2.09798e-07 5.90055e-08 
3 4 2.365e-20 2.78345e-06 1.81043e-07 
3 9 1.29365e-06 1.3654e-08 2.91941e-08 
4 22 1.53063e-07 4.57328e-08 1.28623e-08 
5 23 1.43336e-08 1.19426e-06 5.09043e-08 
5 8 1.19743e-07 2.22442e-07 1.21388e-08 
6 11 1.43947e-08 3.32061e-08 9.33914e-09 
8 11 6.81549e-07 2.39802e-07 6.74438e-08 
8 14 2.97968e-10 1.0311e-07 1.36309e-08 
9 12 6.18473e-07 2.19479e-08 2.05779e-08 
10 14 3.41511e-21 2.91835e-07 1.80038e-08 
10 12 3.38421e-07 3.11096e-08 8.74954e-09 
10 15 7.69889e-09 4.86214e-08 1.33847e-08 
11 13 1.1552e-05 5.18631e-08 1.97293e-07 
11 17 3.34244e-06 3.95673e-08 1.74008e-07 
12 16 9.16406e-07 5.56517e-08 3.18082e-08 
13 18 1.39843e-06 8.04277e-07 1.89266e-07 
14 18 4.4216e-07 7.62221e-08 2.14374e-08 
15 20 3.51455e-07 3.10823e-07 3.80514e-08 
17 18 1.14053e-06 5.57061e-08 -4.41196e-09 
17 20 1.67177e-07 1.8315e-06 4.0253e-07 
18 23 7.83589e-07 6.16076e-10 -9.96432e-09 
19 23 9.74979e-09 1.09877e-06 6.56492e-08 
20 22 4.18187e-09 9.0567e-07 1.08988e-07 
