ITEM: TIMESTEP
600000
ITEM: NUMBER OF ENTRIES
34
ITEM: BOX BOUNDS pp pp pp
-7.5000000000000002e-04 3.7497300000921517e-03
-7.5000000000000002e-04 3.7502699999078480e-03
-7.5000000000000002e-04 4.9922961070256750e-03
ITEM: ENTRIES c_1[5] c_1[6] c_1[15] c_1[16] c_1[17] 
1 3 5.74101e-08 1.07444e-08 3.02185e-09 
2 20 2.77569e-06 1.2318e-06 3.46442e-07 
2 4 1.07819e-05 1.13717e-08 1.97647e-07 
2 3 5.04725e-08 2.90885e-06 7.50464e-07 
2 8 5.68275e-07 3.33435e-07 6.63796e-08 
3 9 3.30272e-07 5.20505e-07 1.46392e-07 
4 22 1.46537e-06 3.34874e-09 4.64156e-08 
5 8 8.13833e-09 1.58312e-08 4.45251e-09 
8 9 2.19106e-08 4.02379e-08 1.13168e-08 
8 11 3.19459e-07 6.04148e-08 1.69914e-08 
8 14 2.97968e-10 2.84375e-08 7.46428e-09 
9 12 1.99186e-07 3.14375e-07 8.84176e-08 
10 12 3.76615e-08 8.91253e-09 2.50664e-09 
10 15 8.6278e-11 1.7241e-11 4.84894e-12 
10 16 2.30171e-10 2.15489e-09 6.06057e-10 
11 13 1.13789e-05 1.64592e-06 3.01644e-07 
11 12 4.28088e-07 5.79048e-07 2.38008e-07 
11 15 9.81701e-07 3.85383e-07 1.33383e-07 
11 17 2.60674e-06 2.20049e-06 3.8573e-07 
12 16 1.30914e-07 2.44834e-07 6.88594e-08 
13 18 7.1568e-08 1.66855e-06 4.26154e-07 
14 17 6.11983e-08 2.25965e-08 6.35524e-09 
14 18 2.07006e-08 1.45629e-08 4.0958e-09 
15 16 1.18484e-07 1.97611e-07 5.55779e-08 
15 19 4.61733e-09 2.09824e-07 5.2441e-08 
15 20 4.8562e-09 3.98959e-09 1.12206e-09 
15 21 4.00403e-08 4.78471e-08 1.34569e-08 
16 22 5.27132e-13 6.26685e-07 1.17766e-07 
17 18 3.91316e-07 2.64473e-06 7.00813e-07 
17 21 2.06518e-07 3.08769e-07 8.6841e-08 
17 23 8.72236e-09 1.18099e-06 1.64771e-07 
18 22 1.37159e-06 1.97781e-06 5.4726e-07 
18 23 2.51703e-10 2.98593e-07 1.86789e-08 
20 21 2.28604e-09 7.4983e-10 2.10887e-10 
