ITEM: TIMESTEP
700000
ITEM: NUMBER OF ENTRIES
34
ITEM: BOX BOUNDS pp pp pp
-7.5000000000000002e-04 3.7496850001075104e-03
-7.5000000000000002e-04 3.7503149998924894e-03
-7.5000000000000002e-04 4.9922386770100708e-03
ITEM: ENTRIES c_1[5] c_1[6] c_1[15] c_1[16] c_1[17] 
1 3 2.57693e-07 3.0289e-08 8.51877e-09 
2 20 2.77947e-06 2.80213e-07 3.33535e-08 
2 4 1.08052e-05 1.04532e-08 1.97388e-07 
2 8 7.24923e-07 4.6003e-08 1.74244e-08 
3 9 9.71668e-07 1.35204e-06 3.80261e-07 
5 23 7.0893e-09 7.10544e-08 1.99839e-08 
5 8 7.76593e-08 1.19169e-07 3.35162e-08 
8 9 1.24055e-07 3.3735e-08 9.4879e-09 
8 11 4.61875e-07 1.4412e-08 4.05309e-09 
8 14 2.97968e-10 2.01324e-07 1.98162e-08 
9 12 4.55041e-07 7.02498e-07 1.97577e-07 
10 12 1.63389e-07 3.0733e-08 8.64364e-09 
10 15 3.6877e-09 1.18186e-09 3.32398e-10 
10 16 1.38111e-08 3.28264e-08 9.23239e-09 
11 13 1.13789e-05 1.36723e-06 2.33419e-07 
11 15 1.2567e-06 1.90414e-10 2.50471e-08 
11 17 2.60674e-06 2.59726e-07 2.25792e-07 
12 16 6.65877e-07 1.01333e-06 2.84998e-07 
13 18 1.26372e-07 1.19622e-06 1.39667e-07 
14 17 1.61584e-07 4.29266e-08 1.20731e-08 
14 18 2.30302e-07 8.67435e-08 2.43965e-08 
15 16 3.23431e-07 5.51997e-07 1.55249e-07 
15 19 4.61733e-09 5.58311e-07 2.7212e-08 
15 20 1.7612e-07 1.98039e-07 5.56984e-08 
15 21 1.52862e-07 8.10268e-08 2.27887e-08 
16 22 2.72539e-07 1.4199e-07 3.49297e-08 
17 18 3.91316e-07 4.96745e-06 3.70187e-07 
17 20 8.02335e-08 1.045e-07 2.93904e-08 
17 21 3.94305e-07 2.87426e-07 8.08383e-08 
17 23 8.72236e-09 1.38527e-06 7.37169e-08 
18 22 1.37159e-06 8.68968e-07 1.44172e-07 
18 23 4.9251e-07 3.1494e-07 7.84395e-08 
19 23 3.1584e-09 3.86396e-08 1.08673e-08 
20 21 8.57994e-08 1.36209e-08 3.83087e-09 
