ITEM: TIMESTEP
200000
ITEM: NUMBER OF ATOMS
23
ITEM: BOX BOUNDS pp pp pp
-7.5000000000000002e-04 3.7499100000307171e-03
-7.5000000000000002e-04 3.7500899999692826e-03
-7.5000000000000002e-04 4.9925258270880919e-03
ITEM: ATOMS c_2[1] c_2[2] c_2[3]
0 0 0
4.69593e-08 7.03525e-08 2.33933e-08
0 0 0
2.11614e-05 3.1432e-05 1.02706e-05
0 0 0
0 0 0
5.6865e-05 7.26417e-05 1.57766e-05
0 0 0
0 0 0
0 0 0
4.68979e-08 7.02609e-08 2.3363e-08
0 0 0
2.15202e-05 3.18627e-05 1.03425e-05
0 0 0
0 0 0
0 0 0
0 0 0
3.24772e-14 4.87336e-14 1.62564e-14
0 0 0
0 0 0
0 0 0
6.25043e-09 9.37877e-09 3.12834e-09
0 0 0
