ITEM: TIMESTEP
900000
ITEM: NUMBER OF ATOMS
23
ITEM: BOX BOUNDS pp pp pp
-7.5000000000000002e-04 3.7495950001382276e-03
-7.5000000000000002e-04 3.7504049998617721e-03
-7.5000000000000002e-04 4.9921238169788624e-03
ITEM: ATOMS c_2[1] c_2[2] c_2[3]
8.72065e-08 1.33333e-07 4.61261e-08
1.57242e-07 2.31993e-06 2.16268e-06
2.217e-06 2.93938e-06 7.22376e-07
1.39064e-06 1.89657e-06 5.05928e-07
9.97118e-07 1.04465e-06 4.75286e-08
4.22965e-10 6.35289e-10 2.12324e-10
3.67125e-05 5.55896e-05 1.88771e-05
5.9924e-08 8.14473e-08 2.15233e-08
6.11079e-06 6.80921e-06 6.98417e-07
7.934e-08 8.31036e-08 3.76357e-09
9.30881e-07 1.39898e-06 4.68101e-07
3.66465e-07 8.34619e-07 4.68154e-07
5.84181e-07 1.52762e-06 9.43443e-07
3.93612e-07 4.90638e-07 9.70263e-08
8.98132e-07 1.05803e-06 1.59895e-07
2.34698e-06 2.41735e-06 7.03626e-08
2.81714e-06 4.85118e-06 2.03404e-06
1.27431e-06 1.55851e-06 2.84202e-07
6.73979e-07 8.97312e-07 2.23333e-07
1.25459e-08 3.84433e-07 3.71887e-07
6.69856e-07 7.46002e-07 7.61462e-08
1.53841e-06 1.62952e-06 9.11019e-08
2.76871e-07 3.22149e-07 4.52776e-08
