ITEM: TIMESTEP
0
ITEM: NUMBER OF ATOMS
23
ITEM: BOX BOUNDS pp pp pp
-7.5000000000000002e-04 3.7499999999999999e-03
-7.5000000000000002e-04 3.7499999999999999e-03
-7.5000000000000002e-04 4.9926406871193003e-03
ITEM: ATOMS c_2[1] c_2[2] c_2[3]
0 0 0
0 0 0
0 0 0
0 0 0
0 0 0
0 0 0
0.000233211 0.000233211 0
0 0 0
0 0 0
0 0 0
0 0 0
0 0 0
0 0 0
0 0 0
0 0 0
0 0 0
0 0 0
0 0 0
0 0 0
0 0 0
0 0 0
0 0 0
0 0 0
