ITEM: TIMESTEP
0
ITEM: NUMBER OF ENTRIES
0
ITEM: BOX BOUNDS pp pp pp
-7.5000000000000002e-04 3.7499999999999999e-03
-7.5000000000000002e-04 3.7499999999999999e-03
-7.5000000000000002e-04 4.9926406871193003e-03
ITEM: ENTRIES c_1[5] c_1[6] c_1[15] c_1[16] c_1[17] 
