ITEM: TIMESTEP
800000
ITEM: NUMBER OF ATOMS
23
ITEM: BOX BOUNDS pp pp pp
-7.5000000000000002e-04 3.7496400001228690e-03
-7.5000000000000002e-04 3.7503599998771307e-03
-7.5000000000000002e-04 4.9921812469944666e-03
ITEM: ATOMS c_2[1] c_2[2] c_2[3]
3.08911e-08 4.66147e-08 1.57236e-08
2.28091e-07 2.56146e-06 2.33337e-06
5.71482e-06 6.47774e-06 7.62926e-07
1.12916e-06 2.04811e-06 9.18949e-07
2.59797e-07 2.69846e-07 1.0049e-08
0 0 0
3.83374e-05 5.72145e-05 1.88771e-05
1.32127e-07 1.47987e-07 1.58607e-08
5.49604e-06 6.33825e-06 8.42217e-07
6.61476e-08 8.69374e-08 2.07898e-08
9.55021e-07 1.87346e-06 9.18439e-07
6.49064e-07 9.88153e-07 3.39088e-07
9.22456e-07 2.40691e-06 1.48445e-06
3.49894e-07 3.82024e-07 3.21304e-08
3.97477e-07 4.49833e-07 5.23558e-08
1.60591e-06 1.6592e-06 5.32857e-08
2.93445e-06 4.10148e-06 1.16703e-06
1.04472e-06 1.23858e-06 1.93861e-07
5.22346e-07 6.21583e-07 9.92372e-08
7.55945e-07 1.06354e-06 3.07592e-07
7.64408e-07 8.45886e-07 8.14771e-08
2.32644e-06 2.64028e-06 3.13837e-07
2.21497e-06 2.24495e-06 2.9986e-08
