ITEM: TIMESTEP
1000000
ITEM: NUMBER OF ENTRIES
28
ITEM: BOX BOUNDS pp pp pp
-7.5000000000000002e-04 3.7495500001535863e-03
-7.5000000000000002e-04 3.7504499998464134e-03
-7.5000000000000002e-04 4.9920663869632582e-03
ITEM: ENTRIES c_1[5] c_1[6] c_1[15] c_1[16] c_1[17] 
1 19 3.21268e-07 3.20492e-07 9.01383e-08 
1 5 1.37794e-07 3.3907e-07 9.53634e-08 
1 3 9.68545e-07 2.44663e-07 6.35288e-08 
2 4 1.08421e-05 5.92077e-07 2.83287e-07 
2 8 8.34581e-07 1.4549e-08 8.5779e-09 
3 21 4.23894e-07 4.88068e-07 1.36933e-07 
3 4 2.365e-20 2.24982e-06 5.17181e-08 
4 22 3.07603e-07 2.51349e-07 7.06918e-08 
5 23 1.26323e-07 5.46689e-07 1.59191e-07 
5 8 1.7691e-07 3.98177e-07 1.09354e-07 
6 11 8.29022e-08 2.19111e-07 6.16249e-08 
8 11 7.12038e-07 4.23395e-07 7.7378e-08 
8 14 2.30934e-08 6.12055e-09 3.40863e-09 
10 14 3.41511e-21 7.10386e-07 1.29484e-08 
10 12 3.77761e-07 2.75028e-08 7.73515e-09 
10 15 7.69889e-09 1.75813e-07 3.48037e-08 
11 13 1.16001e-05 1.43217e-09 1.8311e-07 
11 15 3.52066e-13 1.34144e-12 3.77224e-13 
11 17 3.43954e-06 3.97136e-09 1.63997e-07 
12 13 9.20275e-10 1.312e-09 3.68994e-10 
13 18 1.74704e-06 1.67848e-07 1.02695e-08 
14 17 4.62317e-10 3.09359e-10 8.70043e-11 
14 18 5.31005e-07 1.27592e-07 3.58853e-08 
15 20 5.09452e-07 3.64184e-08 2.07922e-08 
17 20 3.99675e-07 9.44979e-07 2.40699e-07 
18 23 8.20077e-07 6.34639e-08 7.71156e-09 
19 23 2.02111e-08 5.33907e-07 1.59496e-07 
20 22 4.18187e-09 2.1307e-06 3.83616e-07 
