# Coordinates of a fcc lattice for 128 spheres of diameter 40
1 atom types
128 atoms
-20.0000000000000000 140.0000000000000000 xlo xhi
-20.0000000000000000 140.0000000000000000 ylo yhi
-20.0000000000000000 206.2741699796952162 zlo zhi
 
Atoms
 
1 1 40.000000 5000 0.0000000000000000 0.0000000000000000 0.0000000000000000
2 1 40.000000 5000 40.0000000000000000 0.0000000000000000 0.0000000000000000
3 1 40.000000 5000 80.0000000000000000 0.0000000000000000 0.0000000000000000
4 1 40.000000 5000 120.0000000000000000 0.0000000000000000 0.0000000000000000
5 1 40.000000 5000 0.0000000000000000 40.0000000000000000 0.0000000000000000
6 1 40.000000 5000 40.0000000000000000 40.0000000000000000 0.0000000000000000
7 1 40.000000 5000 80.0000000000000000 40.0000000000000000 0.0000000000000000
8 1 40.000000 5000 120.0000000000000000 40.0000000000000000 0.0000000000000000
9 1 40.000000 5000 0.0000000000000000 80.0000000000000000 0.0000000000000000
10 1 40.000000 5000 40.0000000000000000 80.0000000000000000 0.0000000000000000
11 1 40.000000 5000 80.0000000000000000 80.0000000000000000 0.0000000000000000
12 1 40.000000 5000 120.0000000000000000 80.0000000000000000 0.0000000000000000
13 1 40.000000 5000 0.0000000000000000 120.0000000000000000 0.0000000000000000
14 1 40.000000 5000 40.0000000000000000 120.0000000000000000 0.0000000000000000
15 1 40.000000 5000 80.0000000000000000 120.0000000000000000 0.0000000000000000
16 1 40.000000 5000 120.0000000000000000 120.0000000000000000 0.0000000000000000
17 1 40.000000 5000 20.0000000000000000 20.0000000000000000 28.2842712474619020
18 1 40.000000 5000 60.0000000000000000 20.0000000000000000 28.2842712474619020
19 1 40.000000 5000 100.0000000000000000 20.0000000000000000 28.2842712474619020
20 1 40.000000 5000 140.0000000000000000 20.0000000000000000 28.2842712474619020
21 1 40.000000 5000 20.0000000000000000 60.0000000000000000 28.2842712474619020
22 1 40.000000 5000 60.0000000000000000 60.0000000000000000 28.2842712474619020
23 1 40.000000 5000 100.0000000000000000 60.0000000000000000 28.2842712474619020
24 1 40.000000 5000 140.0000000000000000 60.0000000000000000 28.2842712474619020
25 1 40.000000 5000 20.0000000000000000 100.0000000000000000 28.2842712474619020
26 1 40.000000 5000 60.0000000000000000 100.0000000000000000 28.2842712474619020
27 1 40.000000 5000 100.0000000000000000 100.0000000000000000 28.2842712474619020
28 1 40.000000 5000 140.0000000000000000 100.0000000000000000 28.2842712474619020
29 1 40.000000 5000 20.0000000000000000 140.0000000000000000 28.2842712474619020
30 1 40.000000 5000 60.0000000000000000 140.0000000000000000 28.2842712474619020
31 1 40.000000 5000 100.0000000000000000 140.0000000000000000 28.2842712474619020
32 1 40.000000 5000 140.0000000000000000 140.0000000000000000 28.2842712474619020
33 1 40.000000 5000 0.0000000000000000 0.0000000000000000 56.5685424949238040
34 1 40.000000 5000 40.0000000000000000 0.0000000000000000 56.5685424949238040
35 1 40.000000 5000 80.0000000000000000 0.0000000000000000 56.5685424949238040
36 1 40.000000 5000 120.0000000000000000 0.0000000000000000 56.5685424949238040
37 1 40.000000 5000 0.0000000000000000 40.0000000000000000 56.5685424949238040
38 1 40.000000 5000 40.0000000000000000 40.0000000000000000 56.5685424949238040
39 1 40.000000 5000 80.0000000000000000 40.0000000000000000 56.5685424949238040
40 1 40.000000 5000 120.0000000000000000 40.0000000000000000 56.5685424949238040
41 1 40.000000 5000 0.0000000000000000 80.0000000000000000 56.5685424949238040
42 1 40.000000 5000 40.0000000000000000 80.0000000000000000 56.5685424949238040
43 1 40.000000 5000 80.0000000000000000 80.0000000000000000 56.5685424949238040
44 1 40.000000 5000 120.0000000000000000 80.0000000000000000 56.5685424949238040
45 1 40.000000 5000 0.0000000000000000 120.0000000000000000 56.5685424949238040
46 1 40.000000 5000 40.0000000000000000 120.0000000000000000 56.5685424949238040
47 1 40.000000 5000 80.0000000000000000 120.0000000000000000 56.5685424949238040
48 1 40.000000 5000 120.0000000000000000 120.0000000000000000 56.5685424949238040
49 1 40.000000 5000 20.0000000000000000 20.0000000000000000 84.8528137423857061
50 1 40.000000 5000 60.0000000000000000 20.0000000000000000 84.8528137423857061
51 1 40.000000 5000 100.0000000000000000 20.0000000000000000 84.8528137423857061
52 1 40.000000 5000 140.0000000000000000 20.0000000000000000 84.8528137423857061
53 1 40.000000 5000 20.0000000000000000 60.0000000000000000 84.8528137423857061
54 1 40.000000 5000 60.0000000000000000 60.0000000000000000 84.8528137423857061
55 1 40.000000 5000 100.0000000000000000 60.0000000000000000 84.8528137423857061
56 1 40.000000 5000 140.0000000000000000 60.0000000000000000 84.8528137423857061
57 1 40.000000 5000 20.0000000000000000 100.0000000000000000 84.8528137423857061
58 1 40.000000 5000 60.0000000000000000 100.0000000000000000 84.8528137423857061
59 1 40.000000 5000 100.0000000000000000 100.0000000000000000 84.8528137423857061
60 1 40.000000 5000 140.0000000000000000 100.0000000000000000 84.8528137423857061
61 1 40.000000 5000 20.0000000000000000 140.0000000000000000 84.8528137423857061
62 1 40.000000 5000 60.0000000000000000 140.0000000000000000 84.8528137423857061
63 1 40.000000 5000 100.0000000000000000 140.0000000000000000 84.8528137423857061
64 1 40.000000 5000 140.0000000000000000 140.0000000000000000 84.8528137423857061
65 1 40.000000 5000 0.0000000000000000 0.0000000000000000 113.1370849898476081
66 1 40.000000 5000 40.0000000000000000 0.0000000000000000 113.1370849898476081
67 1 40.000000 5000 80.0000000000000000 0.0000000000000000 113.1370849898476081
68 1 40.000000 5000 120.0000000000000000 0.0000000000000000 113.1370849898476081
69 1 40.000000 5000 0.0000000000000000 40.0000000000000000 113.1370849898476081
70 1 40.000000 5000 40.0000000000000000 40.0000000000000000 113.1370849898476081
71 1 40.000000 5000 80.0000000000000000 40.0000000000000000 113.1370849898476081
72 1 40.000000 5000 120.0000000000000000 40.0000000000000000 113.1370849898476081
73 1 40.000000 5000 0.0000000000000000 80.0000000000000000 113.1370849898476081
74 1 40.000000 5000 40.0000000000000000 80.0000000000000000 113.1370849898476081
75 1 40.000000 5000 80.0000000000000000 80.0000000000000000 113.1370849898476081
76 1 40.000000 5000 120.0000000000000000 80.0000000000000000 113.1370849898476081
77 1 40.000000 5000 0.0000000000000000 120.0000000000000000 113.1370849898476081
78 1 40.000000 5000 40.0000000000000000 120.0000000000000000 113.1370849898476081
79 1 40.000000 5000 80.0000000000000000 120.0000000000000000 113.1370849898476081
80 1 40.000000 5000 120.0000000000000000 120.0000000000000000 113.1370849898476081
81 1 40.000000 5000 20.0000000000000000 20.0000000000000000 141.4213562373095101
82 1 40.000000 5000 60.0000000000000000 20.0000000000000000 141.4213562373095101
83 1 40.000000 5000 100.0000000000000000 20.0000000000000000 141.4213562373095101
84 1 40.000000 5000 140.0000000000000000 20.0000000000000000 141.4213562373095101
85 1 40.000000 5000 20.0000000000000000 60.0000000000000000 141.4213562373095101
86 1 40.000000 5000 60.0000000000000000 60.0000000000000000 141.4213562373095101
87 1 40.000000 5000 100.0000000000000000 60.0000000000000000 141.4213562373095101
88 1 40.000000 5000 140.0000000000000000 60.0000000000000000 141.4213562373095101
89 1 40.000000 5000 20.0000000000000000 100.0000000000000000 141.4213562373095101
90 1 40.000000 5000 60.0000000000000000 100.0000000000000000 141.4213562373095101
91 1 40.000000 5000 100.0000000000000000 100.0000000000000000 141.4213562373095101
92 1 40.000000 5000 140.0000000000000000 100.0000000000000000 141.4213562373095101
93 1 40.000000 5000 20.0000000000000000 140.0000000000000000 141.4213562373095101
94 1 40.000000 5000 60.0000000000000000 140.0000000000000000 141.4213562373095101
95 1 40.000000 5000 100.0000000000000000 140.0000000000000000 141.4213562373095101
96 1 40.000000 5000 140.0000000000000000 140.0000000000000000 141.4213562373095101
97 1 40.000000 5000 0.0000000000000000 0.0000000000000000 169.7056274847714121
98 1 40.000000 5000 40.0000000000000000 0.0000000000000000 169.7056274847714121
99 1 40.000000 5000 80.0000000000000000 0.0000000000000000 169.7056274847714121
100 1 40.000000 5000 120.0000000000000000 0.0000000000000000 169.7056274847714121
101 1 40.000000 5000 0.0000000000000000 40.0000000000000000 169.7056274847714121
102 1 40.000000 5000 40.0000000000000000 40.0000000000000000 169.7056274847714121
103 1 40.000000 5000 80.0000000000000000 40.0000000000000000 169.7056274847714121
104 1 40.000000 5000 120.0000000000000000 40.0000000000000000 169.7056274847714121
105 1 40.000000 5000 0.0000000000000000 80.0000000000000000 169.7056274847714121
106 1 40.000000 5000 40.0000000000000000 80.0000000000000000 169.7056274847714121
107 1 40.000000 5000 80.0000000000000000 80.0000000000000000 169.7056274847714121
108 1 40.000000 5000 120.0000000000000000 80.0000000000000000 169.7056274847714121
109 1 40.000000 5000 0.0000000000000000 120.0000000000000000 169.7056274847714121
110 1 40.000000 5000 40.0000000000000000 120.0000000000000000 169.7056274847714121
111 1 40.000000 5000 80.0000000000000000 120.0000000000000000 169.7056274847714121
112 1 40.000000 5000 120.0000000000000000 120.0000000000000000 169.7056274847714121
113 1 40.000000 5000 20.0000000000000000 20.0000000000000000 197.9898987322333141
114 1 40.000000 5000 60.0000000000000000 20.0000000000000000 197.9898987322333141
115 1 40.000000 5000 100.0000000000000000 20.0000000000000000 197.9898987322333141
116 1 40.000000 5000 140.0000000000000000 20.0000000000000000 197.9898987322333141
117 1 40.000000 5000 20.0000000000000000 60.0000000000000000 197.9898987322333141
118 1 40.000000 5000 60.0000000000000000 60.0000000000000000 197.9898987322333141
119 1 40.000000 5000 100.0000000000000000 60.0000000000000000 197.9898987322333141
120 1 40.000000 5000 140.0000000000000000 60.0000000000000000 197.9898987322333141
121 1 40.000000 5000 20.0000000000000000 100.0000000000000000 197.9898987322333141
122 1 40.000000 5000 60.0000000000000000 100.0000000000000000 197.9898987322333141
123 1 40.000000 5000 100.0000000000000000 100.0000000000000000 197.9898987322333141
124 1 40.000000 5000 140.0000000000000000 100.0000000000000000 197.9898987322333141
125 1 40.000000 5000 20.0000000000000000 140.0000000000000000 197.9898987322333141
126 1 40.000000 5000 60.0000000000000000 140.0000000000000000 197.9898987322333141
127 1 40.000000 5000 100.0000000000000000 140.0000000000000000 197.9898987322333141
128 1 40.000000 5000 140.0000000000000000 140.0000000000000000 197.9898987322333141
 
Velocities
 
1 0 0 0 0 0 0
2 0 0 0 0 0 0
3 0 0 0 0 0 0
4 0 0 0 0 0 0
5 0 0 0 0 0 0
6 0 0 0 0 0 0
7 0 0 0 0 0 0
8 0 0 0 0 0 0
9 0 0 0 0 0 0
10 0 0 0 0 0 0
11 0 0 0 0 0 0
12 0 0 0 0 0 0
13 0 0 0 0 0 0
14 0 0 0 0 0 0
15 0 0 0 0 0 0
16 0 0 0 0 0 0
17 0 0 0 0 0 0
18 0 0 0 0 0 0
19 0 0 0 0 0 0
20 0 0 0 0 0 0
21 0 0 0 0 0 0
22 0 0 0 0 0 0
23 0 0 0 0 0 0
24 0 0 0 0 0 0
25 0 0 0 0 0 0
26 0 0 0 0 0 0
27 0 0 0 0 0 0
28 0 0 0 0 0 0
29 0 0 0 0 0 0
30 0 0 0 0 0 0
31 0 0 0 0 0 0
32 0 0 0 0 0 0
33 0 0 0 0 0 0
34 0 0 0 0 0 0
35 0 0 0 0 0 0
36 0 0 0 0 0 0
37 0 0 0 0 0 0
38 0 0 0 0 0 0
39 0 0 0 0 0 0
40 0 0 0 0 0 0
41 0 0 0 0 0 0
42 0 0 0 0 0 0
43 0 0 0 0 0 0
44 0 0 0 0 0 0
45 0 0 0 0 0 0
46 0 0 0 0 0 0
47 0 0 0 0 0 0
48 0 0 0 0 0 0
49 0 0 0 0 0 0
50 0 0 0 0 0 0
51 0 0 0 0 0 0
52 0 0 0 0 0 0
53 0 0 0 0 0 0
54 0 0 0 0 0 0
55 0 0 0 0 0 0
56 0 0 0 0 0 0
57 0 0 0 0 0 0
58 0 0 0 0 0 0
59 0 0 0 0 0 0
60 0 0 0 0 0 0
61 0 0 0 0 0 0
62 0 0 0 0 0 0
63 0 0 0 0 0 0
64 0 0 0 0 0 0
65 0 0 0 0 0 0
66 0 0 0 0 0 0
67 0 0 0 0 0 0
68 0 0 0 0 0 0
69 0 0 0 0 0 0
70 0 0 0 0 0 0
71 0 0 0 0 0 0
72 0 0 0 0 0 0
73 0 0 0 0 0 0
74 0 0 0 0 0 0
75 0 0 0 0 0 0
76 0 0 0 0 0 0
77 0 0 0 0 0 0
78 0 0 0 0 0 0
79 0 0 0 0 0 0
80 0 0 0 0 0 0
81 0 0 0 0 0 0
82 0 0 0 0 0 0
83 0 0 0 0 0 0
84 0 0 0 0 0 0
85 0 0 0 0 0 0
86 0 0 0 0 0 0
87 0 0 0 0 0 0
88 0 0 0 0 0 0
89 0 0 0 0 0 0
90 0 0 0 0 0 0
91 0 0 0 0 0 0
92 0 0 0 0 0 0
93 0 0 0 0 0 0
94 0 0 0 0 0 0
95 0 0 0 0 0 0
96 0 0 0 0 0 0
97 0 0 0 0 0 0
98 0 0 0 0 0 0
99 0 0 0 0 0 0
100 0 0 0 0 0 0
101 0 0 0 0 0 0
102 0 0 0 0 0 0
103 0 0 0 0 0 0
104 0 0 0 0 0 0
105 0 0 0 0 0 0
106 0 0 0 0 0 0
107 0 0 0 0 0 0
108 0 0 0 0 0 0
109 0 0 0 0 0 0
110 0 0 0 0 0 0
111 0 0 0 0 0 0
112 0 0 0 0 0 0
113 0 0 0 0 0 0
114 0 0 0 0 0 0
115 0 0 0 0 0 0
116 0 0 0 0 0 0
117 0 0 0 0 0 0
118 0 0 0 0 0 0
119 0 0 0 0 0 0
120 0 0 0 0 0 0
121 0 0 0 0 0 0
122 0 0 0 0 0 0
123 0 0 0 0 0 0
124 0 0 0 0 0 0
125 0 0 0 0 0 0
126 0 0 0 0 0 0
127 0 0 0 0 0 0
128 0 0 0 0 0 0
