ITEM: TIMESTEP
0
ITEM: NUMBER OF ENTRIES
0
ITEM: BOX BOUNDS pp pp pp
-2.0000000000000000e+01 1.4000000000000000e+02
-2.0000000000000000e+01 1.4000000000000000e+02
-2.0000000000000000e+01 2.0627416997969522e+02
ITEM: ENTRIES c_1[1] c_1[2] c_1[3] c_1[4] c_1[5] c_1[6] c_1[7] c_1[8] c_1[9] c_1[10] c_1[11] c_1[12] c_1[13] c_1[14] 
ITEM: TIMESTEP
10000
ITEM: NUMBER OF ENTRIES
768
ITEM: BOX BOUNDS pp pp pp
-2.0000000000000000e+01 1.3997310555208477e+02
-2.0000000000000000e+01 1.3997310555208477e+02
-2.0000000000000000e+01 2.0623613548672003e+02
ITEM: ENTRIES c_1[1] c_1[2] c_1[3] c_1[4] c_1[5] c_1[6] c_1[7] c_1[8] c_1[9] c_1[10] c_1[11] c_1[12] c_1[13] c_1[14] 
-0.0556383 0.0536623 -0.0772872 2.11935e+06 1 125 -0.00336181 -0.00336181 -0.00336181 20 19.9933 -20 -28.2829 20 
-0.0618322 -0.0519297 -0.0804418 2.11935e+06 1 113 -0.00336181 -0.00336181 -0.00336181 20 19.9933 19.9933 -28.2829 20 
0.000613348 4.79908e-18 -0.00290698 2.11935e+06 1 13 -0.00336181 -0.00336181 -0.00336181 20 -0.0033618 -39.9966 -0.0033618 20 
-8.54014e-15 -0.0010939 0.0026132 2.11935e+06 1 2 -0.00336181 -0.00336181 -0.00336181 20 39.9899 -0.00336181 -0.00336181 20 
-0.00253762 9.21448e-19 -0.00200105 2.11935e+06 1 5 -0.00336181 -0.00336181 -0.00336181 20 -0.00336181 39.9899 -0.00336181 20 
0.00333604 -0.00477841 -0.00573778 2.11935e+06 1 29 -0.00336181 -0.00336181 -0.00336181 20 19.9933 -20 28.2762 20 
0.0060505 0.0041584 -0.00721878 2.11935e+06 1 17 -0.00336181 -0.00336181 -0.00336181 20 19.9933 19.9933 28.2762 20 
-0.050208 0.0544623 -0.0740131 2.11935e+06 2 126 39.9899 -0.00336181 -0.00336181 20 59.9866 -20 -28.2829 20 
-0.0605303 -0.0503503 -0.0784044 2.11935e+06 2 114 39.9899 -0.00336181 -0.00336181 20 59.9866 19.9933 -28.2829 20 
-0.00069082 -6.4356e-17 -0.00711538 2.11935e+06 2 14 39.9899 -0.00336181 -0.00336181 20 39.9899 -39.9966 -0.0033618 20 
8.63341e-15 -0.000373888 -0.00735681 2.11935e+06 2 3 39.9899 -0.00336181 -0.00336181 20 79.9832 -0.00336181 -0.00336181 20 
-0.000565278 4.33909e-17 -0.00414956 2.11935e+06 2 6 39.9899 -0.00336181 -0.00336181 20 39.9899 39.9899 -0.00336181 20 
0.00707063 -0.00256392 -0.00681266 2.11934e+06 2 30 39.9899 -0.00336181 -0.00336181 20 59.9866 -20 28.2762 20 
-0.00802658 0.00511534 -0.00929274 2.11935e+06 2 17 39.9899 -0.00336181 -0.00336181 20 19.9933 19.9933 28.2762 20 
0.00786907 0.00254362 -0.00736289 2.11935e+06 2 18 39.9899 -0.00336181 -0.00336181 20 59.9866 19.9933 28.2762 20 
-0.0474478 0.0388516 -0.0610229 2.11935e+06 3 127 79.9832 -0.00336181 -0.00336181 20 99.9798 -20 -28.2829 20 
-0.0517226 -0.0384215 -0.0637415 2.11934e+06 3 115 79.9832 -0.00336181 -0.00336181 20 99.9798 19.9933 -28.2829 20 
-0.00160318 -8.55459e-15 -0.00157183 2.11935e+06 3 15 79.9832 -0.00336181 -0.00336181 20 79.9832 -39.9966 -0.0033618 20 
4.50577e-18 0.00176463 0.000171361 2.11935e+06 3 4 79.9832 -0.00336181 -0.00336181 20 119.976 -0.00336181 -0.00336181 20 
-0.00202572 -8.54618e-15 0.00218886 2.11935e+06 3 7 79.9832 -0.00336181 -0.00336181 20 79.9832 39.9899 -0.00336181 20 
-0.000364157 -0.00516751 -0.00339649 2.11934e+06 3 31 79.9832 -0.00336181 -0.00336181 20 99.9798 -20 28.2762 20 
-0.00181562 0.00303882 -0.00343261 2.11935e+06 3 18 79.9832 -0.00336181 -0.00336181 20 59.9866 19.9933 28.2762 20 
-0.00336818 0.00743146 -0.00287317 2.11935e+06 3 19 79.9832 -0.00336181 -0.00336181 20 99.9798 19.9933 28.2762 20 
-0.0430802 0.0565974 -0.0704827 2.11934e+06 4 128 119.976 -0.00336181 -0.00336181 20 139.973 -20 -28.2829 20 
-0.0460523 -0.0556636 -0.071924 2.11934e+06 4 116 119.976 -0.00336181 -0.00336181 20 139.973 19.9933 -28.2829 20 
0.00162936 2.57877e-19 -1.69819e-05 2.11935e+06 4 16 119.976 -0.00336181 -0.00336181 20 119.976 -39.9966 -0.0033618 20 
1.62586e-17 0.000154723 0.0064847 2.11934e+06 4 1 119.976 -0.00336181 -0.00336181 20 159.97 -0.0033618 -0.0033618 20 
0.00535903 1.58411e-18 0.000483179 2.11935e+06 4 8 119.976 -0.00336181 -0.00336181 20 119.976 39.9899 -0.00336181 20 
0.0051235 0.000244018 -0.00345032 2.11934e+06 4 32 119.976 -0.00336181 -0.00336181 20 139.973 -20 28.2762 20 
0.00307583 0.00526662 -0.00154912 2.11935e+06 4 19 119.976 -0.00336181 -0.00336181 20 99.9798 19.9933 28.2762 20 
0.00467165 0.00110386 -0.00408391 2.11935e+06 4 20 119.976 -0.00336181 -0.00336181 20 139.973 19.9933 28.2762 20 
-0.0555762 0.0562891 -0.0791007 2.11935e+06 5 113 -0.00336181 39.9899 -0.00336181 20 19.9933 19.9933 -28.2829 20 
-0.0479584 -0.0642552 -0.079347 2.11935e+06 5 117 -0.00336181 39.9899 -0.00336181 20 19.9933 59.9866 -28.2829 20 
-7.5456e-19 -0.00239187 0.000505431 2.11935e+06 5 6 -0.00336181 39.9899 -0.00336181 20 39.9899 39.9899 -0.00336181 20 
-0.000585217 8.56143e-15 0.0010075 2.11935e+06 5 9 -0.00336181 39.9899 -0.00336181 20 -0.00336181 79.9832 -0.00336181 20 
0.00480615 -0.00715247 -0.00845603 2.11935e+06 5 17 -0.00336181 39.9899 -0.00336181 20 19.9933 19.9933 28.2762 20 
0.00419752 0.0044468 -0.00611246 2.11935e+06 5 21 -0.00336181 39.9899 -0.00336181 20 19.9933 59.9866 28.2762 20 
-0.0553168 0.054966 -0.0779817 2.11935e+06 6 114 39.9899 39.9899 -0.00336181 20 59.9866 19.9933 -28.2829 20 
-0.0514598 -0.0538232 -0.0744463 2.11934e+06 6 118 39.9899 39.9899 -0.00336181 20 59.9866 59.9866 -28.2829 20 
8.54643e-15 -0.00115889 -0.00203187 2.11935e+06 6 7 39.9899 39.9899 -0.00336181 20 79.9832 39.9899 -0.00336181 20 
0.000403372 8.5562e-15 -0.000327586 2.11935e+06 6 10 39.9899 39.9899 -0.00336181 20 39.9899 79.9832 -0.00336181 20 
-0.00380078 -0.0077714 -0.00818276 2.11935e+06 6 17 39.9899 39.9899 -0.00336181 20 19.9933 19.9933 28.2762 20 
0.00527291 -0.00484737 -0.00715612 2.11935e+06 6 18 39.9899 39.9899 -0.00336181 20 59.9866 19.9933 28.2762 20 
-0.00582587 0.00431042 -0.00716744 2.11935e+06 6 21 39.9899 39.9899 -0.00336181 20 19.9933 59.9866 28.2762 20 
0.00482308 0.00692785 -0.00830917 2.11935e+06 6 22 39.9899 39.9899 -0.00336181 20 59.9866 59.9866 28.2762 20 
-0.0511322 0.0427241 -0.0663665 2.11935e+06 7 115 79.9832 39.9899 -0.00336181 20 99.9798 19.9933 -28.2829 20 
-0.0553347 -0.0458851 -0.0715732 2.11934e+06 7 119 79.9832 39.9899 -0.00336181 20 99.9798 59.9866 -28.2829 20 
5.57161e-19 0.00128582 -0.00269399 2.11935e+06 7 8 79.9832 39.9899 -0.00336181 20 119.976 39.9899 -0.00336181 20 
-0.0024248 4.20666e-18 -0.00090173 2.11935e+06 7 11 79.9832 39.9899 -0.00336181 20 79.9832 79.9832 -0.00336181 20 
-0.00120702 -0.00530883 -0.0046074 2.11935e+06 7 18 79.9832 39.9899 -0.00336181 20 59.9866 19.9933 28.2762 20 
-0.000130902 -0.00445487 -0.00305751 2.11935e+06 7 19 79.9832 39.9899 -0.00336181 20 99.9798 19.9933 28.2762 20 
-5.43554e-05 0.00811761 -0.00577845 2.11935e+06 7 22 79.9832 39.9899 -0.00336181 20 59.9866 59.9866 28.2762 20 
0.000493101 0.00309232 -0.00253527 2.11935e+06 7 23 79.9832 39.9899 -0.00336181 20 99.9798 59.9866 28.2762 20 
-0.0535097 0.0494446 -0.0727996 2.11935e+06 8 116 119.976 39.9899 -0.00336181 20 139.973 19.9933 -28.2829 20 
-0.0440393 -0.0439566 -0.0622225 2.11934e+06 8 120 119.976 39.9899 -0.00336181 20 139.973 59.9866 -28.2829 20 
-2.16169e-17 0.00226029 0.00642336 2.11934e+06 8 5 119.976 39.9899 -0.00336181 20 159.97 39.9899 -0.0033618 20 
0.00228626 -1.53607e-18 0.00142108 2.11935e+06 8 12 119.976 39.9899 -0.00336181 20 119.976 79.9832 -0.00336181 20 
2.76021e-05 -0.00307347 -0.00215376 2.11935e+06 8 19 119.976 39.9899 -0.00336181 20 99.9798 19.9933 28.2762 20 
0.00189715 -0.00367031 -0.00393679 2.11935e+06 8 20 119.976 39.9899 -0.00336181 20 139.973 19.9933 28.2762 20 
0.00056587 0.0024805 -0.00135385 2.11935e+06 8 23 119.976 39.9899 -0.00336181 20 99.9798 59.9866 28.2762 20 
0.000547766 0.00612629 -0.00471927 2.11935e+06 8 24 119.976 39.9899 -0.00336181 20 139.973 59.9866 28.2762 20 
-0.0497427 0.060328 -0.0778317 2.11935e+06 9 117 -0.00336181 79.9832 -0.00336181 20 19.9933 59.9866 -28.2829 20 
-0.048143 -0.055725 -0.0734458 2.11934e+06 9 121 -0.00336181 79.9832 -0.00336181 20 19.9933 99.9798 -28.2829 20 
3.67596e-18 0.00213241 -0.00178887 2.11935e+06 9 10 -0.00336181 79.9832 -0.00336181 20 39.9899 79.9832 -0.00336181 20 
0.00276602 -8.55789e-15 0.000528803 2.11935e+06 9 13 -0.00336181 79.9832 -0.00336181 20 -0.00336181 119.976 -0.00336181 20 
0.00619584 -0.00212915 -0.00588666 2.11935e+06 9 21 -0.00336181 79.9832 -0.00336181 20 19.9933 59.9866 28.2762 20 
0.00785222 0.00163249 -0.0067067 2.11935e+06 9 25 -0.00336181 79.9832 -0.00336181 20 19.9933 99.9798 28.2762 20 
-0.055854 0.04637 -0.0722832 2.11935e+06 10 118 39.9899 79.9832 -0.00336181 20 59.9866 59.9866 -28.2829 20 
-0.0484771 -0.0496704 -0.0694008 2.11934e+06 10 122 39.9899 79.9832 -0.00336181 20 59.9866 99.9798 -28.2829 20 
4.11559e-18 -0.00135157 -0.0020108 2.11935e+06 10 11 39.9899 79.9832 -0.00336181 20 79.9832 79.9832 -0.00336181 20 
-0.000158668 1.36129e-18 -0.00141093 2.11935e+06 10 14 39.9899 79.9832 -0.00336181 20 39.9899 119.976 -0.00336181 20 
-0.00621428 -0.0016254 -0.00554349 2.11935e+06 10 21 39.9899 79.9832 -0.00336181 20 19.9933 59.9866 28.2762 20 
0.00618417 -0.00344852 -0.00681134 2.11935e+06 10 22 39.9899 79.9832 -0.00336181 20 59.9866 59.9866 28.2762 20 
-0.00641355 0.0020712 -0.00599963 2.11935e+06 10 25 39.9899 79.9832 -0.00336181 20 19.9933 99.9798 28.2762 20 
0.00399594 -0.000370357 -0.00256368 2.11935e+06 10 26 39.9899 79.9832 -0.00336181 20 59.9866 99.9798 28.2762 20 
-0.049277 0.0505665 -0.0706 2.11935e+06 11 119 79.9832 79.9832 -0.00336181 20 99.9798 59.9866 -28.2829 20 
-0.0473292 -0.0519257 -0.0701838 2.11934e+06 11 123 79.9832 79.9832 -0.00336181 20 99.9798 99.9798 -28.2829 20 
-8.55709e-15 -0.00201031 -4.34744e-05 2.11935e+06 11 12 79.9832 79.9832 -0.00336181 20 119.976 79.9832 -0.00336181 20 
0.00268595 -8.55817e-15 -0.0010894 2.11935e+06 11 15 79.9832 79.9832 -0.00336181 20 79.9832 119.976 -0.00336181 20 
-0.00231278 -0.00274597 -0.00357708 2.11935e+06 11 22 79.9832 79.9832 -0.00336181 20 59.9866 59.9866 28.2762 20 
0.00202565 0.0012846 -0.000524003 2.11935e+06 11 23 79.9832 79.9832 -0.00336181 20 99.9798 59.9866 28.2762 20 
-0.000129325 0.000302399 -0.000305275 2.11935e+06 11 26 79.9832 79.9832 -0.00336181 20 59.9866 99.9798 28.2762 20 
0.00181738 0.0012458 -0.002166 2.11935e+06 11 27 79.9832 79.9832 -0.00336181 20 99.9798 99.9798 28.2762 20 
-0.0458509 0.0455726 -0.0646462 2.11935e+06 12 120 119.976 79.9832 -0.00336181 20 139.973 59.9866 -28.2829 20 
-0.0533936 -0.0467024 -0.0707786 2.11934e+06 12 124 119.976 79.9832 -0.00336181 20 139.973 99.9798 -28.2829 20 
3.97471e-18 0.000754764 0.00592274 2.11934e+06 12 9 119.976 79.9832 -0.00336181 20 159.97 79.9832 -0.0033618 20 
-0.0052931 -8.55155e-15 0.00107217 2.11935e+06 12 16 119.976 79.9832 -0.00336181 20 119.976 119.976 -0.00336181 20 
-0.000518487 -0.000531718 -0.000742607 2.11935e+06 12 23 119.976 79.9832 -0.00336181 20 99.9798 59.9866 28.2762 20 
0.00109031 -0.0032371 -0.00305994 2.11935e+06 12 24 119.976 79.9832 -0.00336181 20 139.973 59.9866 28.2762 20 
-0.00245077 0.00192858 -0.00309667 2.11935e+06 12 27 119.976 79.9832 -0.00336181 20 99.9798 99.9798 28.2762 20 
0.00258588 0.00455296 -0.00504793 2.11935e+06 12 28 119.976 79.9832 -0.00336181 20 139.973 99.9798 28.2762 20 
-0.0506857 0.0563026 -0.0756521 2.11935e+06 13 121 -0.00336181 119.976 -0.00336181 20 19.9933 99.9798 -28.2829 20 
-0.0536511 -0.0533111 -0.0756337 2.11934e+06 13 125 -0.00336181 119.976 -0.00336181 20 19.9933 139.973 -28.2829 20 
1.1192e-17 0.00134985 -0.00276564 2.11935e+06 13 14 -0.00336181 119.976 -0.00336181 20 39.9899 119.976 -0.00336181 20 
0.0076577 -0.000181678 -0.00554328 2.11935e+06 13 25 -0.00336181 119.976 -0.00336181 20 19.9933 99.9798 28.2762 20 
-0.00463732 0.00490675 -0.00674867 2.11935e+06 13 32 -0.00336181 119.976 -0.00336181 20 -20 139.973 28.2762 20 
0.00208959 0.00678034 -0.00627199 2.11935e+06 13 29 -0.00336181 119.976 -0.00336181 20 19.9933 139.973 28.2762 20 
-0.0474781 0.0487755 -0.0680615 2.11935e+06 14 122 39.9899 119.976 -0.00336181 20 59.9866 99.9798 -28.2829 20 
-0.0486515 -0.0482912 -0.0685488 2.11934e+06 14 126 39.9899 119.976 -0.00336181 20 59.9866 139.973 -28.2829 20 
8.55681e-15 0.00303171 -0.00243917 2.11935e+06 14 15 39.9899 119.976 -0.00336181 20 79.9832 119.976 -0.00336181 20 
-0.0067971 -0.00050162 -0.00516098 2.11935e+06 14 25 39.9899 119.976 -0.00336181 20 19.9933 99.9798 28.2762 20 
0.0043461 0.0023104 -0.00143946 2.11935e+06 14 26 39.9899 119.976 -0.00336181 20 59.9866 99.9798 28.2762 20 
-0.00205114 0.00465234 -0.00474007 2.11935e+06 14 29 39.9899 119.976 -0.00336181 20 19.9933 139.973 28.2762 20 
0.00546 0.00186872 -0.00518218 2.11935e+06 14 30 39.9899 119.976 -0.00336181 20 59.9866 139.973 28.2762 20 
-0.0509277 0.0463627 -0.0687947 2.11935e+06 15 123 79.9832 119.976 -0.00336181 20 99.9798 99.9798 -28.2829 20 
-0.0437124 -0.0427906 -0.0611669 2.11934e+06 15 127 79.9832 119.976 -0.00336181 20 99.9798 139.973 -28.2829 20 
-8.54062e-15 -0.000607508 0.00230871 2.11935e+06 15 16 79.9832 119.976 -0.00336181 20 119.976 119.976 -0.00336181 20 
-0.000970558 0.00038661 -0.000412913 2.11935e+06 15 26 79.9832 119.976 -0.00336181 20 59.9866 99.9798 28.2762 20 
-0.000340303 -0.00310507 -0.00195498 2.11935e+06 15 27 79.9832 119.976 -0.00336181 20 99.9798 99.9798 28.2762 20 
-0.00585748 -0.000758263 -0.00360569 2.11935e+06 15 30 79.9832 119.976 -0.00336181 20 59.9866 139.973 28.2762 20 
0.000854106 0.00364323 -0.00318009 2.11935e+06 15 31 79.9832 119.976 -0.00336181 20 99.9798 139.973 28.2762 20 
-0.0492242 0.05006 -0.0702045 2.11935e+06 16 124 119.976 119.976 -0.00336181 20 139.973 99.9798 -28.2829 20 
-0.0473736 -0.054354 -0.0719323 2.11934e+06 16 128 119.976 119.976 -0.00336181 20 139.973 139.973 -28.2829 20 
-8.57289e-15 -0.00370778 0.00476345 2.11934e+06 16 13 119.976 119.976 -0.00336181 20 159.97 119.976 -0.0033618 20 
-0.00164166 -0.00249412 -0.00292444 2.11935e+06 16 27 119.976 119.976 -0.00336181 20 99.9798 99.9798 28.2762 20 
0.00664983 -0.00278716 -0.00667296 2.11935e+06 16 28 119.976 119.976 -0.00336181 20 139.973 99.9798 28.2762 20 
0.000776711 0.00640197 -0.00397766 2.11935e+06 16 31 119.976 119.976 -0.00336181 20 99.9798 139.973 28.2762 20 
0.00518432 0.00212884 -0.00517119 2.11934e+06 16 32 119.976 119.976 -0.00336181 20 139.973 139.973 28.2762 20 
0.000387194 8.45799e-15 0.00732267 2.11935e+06 17 29 19.9933 19.9933 28.2762 20 19.9933 -20 28.2762 20 
-8.50033e-15 0.00028362 0.00451229 2.11935e+06 17 18 19.9933 19.9933 28.2762 20 59.9866 19.9933 28.2762 20 
0.000696191 8.62419e-15 0.0049342 2.11935e+06 17 21 19.9933 19.9933 28.2762 20 19.9933 59.9866 28.2762 20 
-0.00774676 -0.0082519 -0.0113128 2.11935e+06 17 33 19.9933 19.9933 28.2762 20 -0.00336181 -0.00336181 56.5557 20 
0.00903648 -0.0021175 -0.00788706 2.11935e+06 17 34 19.9933 19.9933 28.2762 20 39.9899 -0.00336181 56.5557 20 
-0.0022769 0.00942934 -0.00827756 2.11935e+06 17 37 19.9933 19.9933 28.2762 20 -0.00336181 39.9899 56.5557 20 
0.00519747 0.00544534 -0.00752561 2.11935e+06 17 38 19.9933 19.9933 28.2762 20 39.9899 39.9899 56.5557 20 
-0.000781526 -1.79748e-18 0.00079157 2.11935e+06 18 30 59.9866 19.9933 28.2762 20 59.9866 -20 28.2762 20 
-8.54178e-15 0.0018904 0.00241492 2.11935e+06 18 19 59.9866 19.9933 28.2762 20 99.9798 19.9933 28.2762 20 
0.000246584 1.05449e-17 -0.00135026 2.11935e+06 18 22 59.9866 19.9933 28.2762 20 59.9866 59.9866 28.2762 20 
-0.00688736 -0.0055926 -0.00882466 2.11935e+06 18 34 59.9866 19.9933 28.2762 20 39.9899 -0.00336181 56.5557 20 
0.00439231 -0.00705644 -0.00809549 2.11935e+06 18 35 59.9866 19.9933 28.2762 20 79.9832 -0.00336181 56.5557 20 
-0.00538747 0.00700565 -0.00876326 2.11935e+06 18 38 59.9866 19.9933 28.2762 20 39.9899 39.9899 56.5557 20 
0.00420723 0.00842283 -0.0089308 2.11935e+06 18 39 59.9866 19.9933 28.2762 20 79.9832 39.9899 56.5557 20 
-0.000224375 -1.00619e-17 -0.000989574 2.11935e+06 19 31 99.9798 19.9933 28.2762 20 99.9798 -20 28.2762 20 
-8.54084e-15 -0.00088401 -0.00239402 2.11935e+06 19 20 99.9798 19.9933 28.2762 20 139.973 19.9933 28.2762 20 
0.000538346 4.17699e-17 0.00443284 2.11935e+06 19 23 99.9798 19.9933 28.2762 20 99.9798 59.9866 28.2762 20 
-0.00565918 -0.00810272 -0.00973113 2.11935e+06 19 35 99.9798 19.9933 28.2762 20 79.9832 -0.00336181 56.5557 20 
0.00304126 -0.00813394 -0.00790206 2.11935e+06 19 36 99.9798 19.9933 28.2762 20 119.976 -0.00336181 56.5557 20 
-0.00477365 0.00834512 -0.00927637 2.11935e+06 19 39 99.9798 19.9933 28.2762 20 79.9832 39.9899 56.5557 20 
0.00495958 0.0105247 -0.010949 2.11935e+06 19 40 99.9798 19.9933 28.2762 20 119.976 39.9899 56.5557 20 
0.00540495 -0.00299912 0.00594258 2.11935e+06 20 1 139.973 19.9933 28.2762 20 159.97 -0.0033618 -0.0033618 20 
0.00429845 0.00532809 0.00680699 2.11934e+06 20 5 139.973 19.9933 28.2762 20 159.97 39.9899 -0.0033618 20 
-0.000358228 -2.91134e-17 0.00520904 2.11935e+06 20 32 139.973 19.9933 28.2762 20 139.973 -20 28.2762 20 
5.56366e-17 -0.00111234 -0.00485438 2.11934e+06 20 17 139.973 19.9933 28.2762 20 179.966 19.9933 28.2762 20 
-0.0014907 1.18481e-17 0.00348462 2.11935e+06 20 24 139.973 19.9933 28.2762 20 139.973 59.9866 28.2762 20 
-0.00494472 -0.00676813 -0.00828224 2.11935e+06 20 36 139.973 19.9933 28.2762 20 119.976 -0.00336181 56.5557 20 
-0.00864976 0.00889585 -0.0124066 2.11935e+06 20 40 139.973 19.9933 28.2762 20 119.976 39.9899 56.5557 20 
6.12459e-19 0.000986066 -9.25929e-05 2.11935e+06 21 22 19.9933 59.9866 28.2762 20 59.9866 59.9866 28.2762 20 
-0.000518873 8.59164e-15 -0.00324247 2.11935e+06 21 25 19.9933 59.9866 28.2762 20 19.9933 99.9798 28.2762 20 
-0.00909539 -0.00252833 -0.00821921 2.11935e+06 21 37 19.9933 59.9866 28.2762 20 -0.00336181 39.9899 56.5557 20 
0.00484424 -0.00683463 -0.00825821 2.11935e+06 21 38 19.9933 59.9866 28.2762 20 39.9899 39.9899 56.5557 20 
-0.00799782 -0.000475179 -0.00531931 2.11935e+06 21 41 19.9933 59.9866 28.2762 20 -0.00336181 79.9832 56.5557 20 
0.00735468 0.00705937 -0.0101923 2.11935e+06 21 42 19.9933 59.9866 28.2762 20 39.9899 79.9832 56.5557 20 
1.88525e-16 -4.10203e-05 0.00813867 2.11935e+06 22 23 59.9866 59.9866 28.2762 20 99.9798 59.9866 28.2762 20 
-8.42719e-05 1.78445e-16 0.00775889 2.11935e+06 22 26 59.9866 59.9866 28.2762 20 59.9866 99.9798 28.2762 20 
-0.0042133 -0.0083618 -0.00889193 2.11935e+06 22 38 59.9866 59.9866 28.2762 20 39.9899 39.9899 56.5557 20 
0.00389962 -0.00882781 -0.00899965 2.11935e+06 22 39 59.9866 59.9866 28.2762 20 79.9832 39.9899 56.5557 20 
-0.00915539 0.00581323 -0.0105844 2.11935e+06 22 42 59.9866 59.9866 28.2762 20 39.9899 79.9832 56.5557 20 
0.00848553 0.00636915 -0.0105038 2.11935e+06 22 43 59.9866 59.9866 28.2762 20 79.9832 79.9832 56.5557 20 
7.93104e-17 -0.000359485 -0.00679323 2.11935e+06 23 24 99.9798 59.9866 28.2762 20 139.973 59.9866 28.2762 20 
-9.10623e-05 -8.48717e-15 -0.00426367 2.11935e+06 23 27 99.9798 59.9866 28.2762 20 99.9798 99.9798 28.2762 20 
-0.00706508 -0.01118 -0.0129012 2.11935e+06 23 39 99.9798 59.9866 28.2762 20 79.9832 39.9899 56.5557 20 
0.00625304 -0.0140802 -0.0143778 2.11935e+06 23 40 99.9798 59.9866 28.2762 20 119.976 39.9899 56.5557 20 
-0.0119118 0.00801513 -0.0140905 2.11935e+06 23 43 99.9798 59.9866 28.2762 20 79.9832 79.9832 56.5557 20 
0.00976156 0.0095682 -0.0136682 2.11935e+06 23 44 99.9798 59.9866 28.2762 20 119.976 79.9832 56.5557 20 
0.00190003 -0.00711478 0.00637444 2.11935e+06 24 5 139.973 59.9866 28.2762 20 159.97 39.9899 -0.0033618 20 
0.00338715 0.00362607 0.00495909 2.11934e+06 24 9 139.973 59.9866 28.2762 20 159.97 79.9832 -0.0033618 20 
7.97017e-18 -0.00105699 -0.00208822 2.11934e+06 24 21 139.973 59.9866 28.2762 20 179.966 59.9866 28.2762 20 
6.346e-05 6.32241e-17 -0.00556948 2.11935e+06 24 28 139.973 59.9866 28.2762 20 139.973 99.9798 28.2762 20 
-0.00835037 -0.00961055 -0.0127003 2.11935e+06 24 40 139.973 59.9866 28.2762 20 119.976 39.9899 56.5557 20 
-0.00936226 0.00739868 -0.0118518 2.11935e+06 24 44 139.973 59.9866 28.2762 20 119.976 79.9832 56.5557 20 
2.44917e-16 -0.000932602 0.0101064 2.11935e+06 25 26 19.9933 99.9798 28.2762 20 59.9866 99.9798 28.2762 20 
-0.000348795 4.86675e-17 0.00476212 2.11935e+06 25 29 19.9933 99.9798 28.2762 20 19.9933 139.973 28.2762 20 
-0.00379808 -0.00312633 -0.00489629 2.11935e+06 25 41 19.9933 99.9798 28.2762 20 -0.00336181 79.9832 56.5557 20 
0.00695013 -0.00772433 -0.0103764 2.11935e+06 25 42 19.9933 99.9798 28.2762 20 39.9899 79.9832 56.5557 20 
-0.0109075 0.00176186 -0.00895861 2.11935e+06 25 45 19.9933 99.9798 28.2762 20 -0.00336181 119.976 56.5557 20 
0.0109427 0.00317343 -0.00998159 2.11935e+06 25 46 19.9933 99.9798 28.2762 20 39.9899 119.976 56.5557 20 
7.75851e-17 0.000510055 -0.00479747 2.11935e+06 26 27 59.9866 99.9798 28.2762 20 99.9798 99.9798 28.2762 20 
-0.000496715 -1.7024e-14 -0.00603252 2.11935e+06 26 30 59.9866 99.9798 28.2762 20 59.9866 139.973 28.2762 20 
-0.0118109 -0.00952066 -0.0150837 2.11935e+06 26 42 59.9866 99.9798 28.2762 20 39.9899 79.9832 56.5557 20 
0.0115281 -0.00951098 -0.0148769 2.11935e+06 26 43 59.9866 99.9798 28.2762 20 79.9832 79.9832 56.5557 20 
-0.0116519 0.00924268 -0.0147747 2.11935e+06 26 46 59.9866 99.9798 28.2762 20 39.9899 119.976 56.5557 20 
0.0118006 0.00923797 -0.0148766 2.11935e+06 26 47 59.9866 99.9798 28.2762 20 79.9832 119.976 56.5557 20 
2.9327e-17 0.000310448 -0.00434087 2.11935e+06 27 28 99.9798 99.9798 28.2762 20 139.973 99.9798 28.2762 20 
-0.000152213 5.97109e-18 -0.00212253 2.11935e+06 27 31 99.9798 99.9798 28.2762 20 99.9798 139.973 28.2762 20 
-0.0100401 -0.0094158 -0.0137574 2.11935e+06 27 43 99.9798 99.9798 28.2762 20 79.9832 79.9832 56.5557 20 
0.00480791 -0.0144251 -0.0135998 2.11935e+06 27 44 99.9798 99.9798 28.2762 20 119.976 79.9832 56.5557 20 
-0.0144956 0.00482672 -0.0136629 2.11935e+06 27 47 99.9798 99.9798 28.2762 20 79.9832 119.976 56.5557 20 
0.00936969 0.0104809 -0.0140365 2.11935e+06 27 48 99.9798 99.9798 28.2762 20 119.976 119.976 56.5557 20 
0.00480161 -0.00405085 0.00625963 2.11935e+06 28 9 139.973 99.9798 28.2762 20 159.97 79.9832 -0.0033618 20 
0.00625977 0.00228047 0.00603886 2.11934e+06 28 13 139.973 99.9798 28.2762 20 159.97 119.976 -0.0033618 20 
-8.5547e-15 4.82576e-05 -0.00180075 2.11934e+06 28 25 139.973 99.9798 28.2762 20 179.966 99.9798 28.2762 20 
0.000612568 -8.48781e-15 0.00588228 2.11934e+06 28 32 139.973 99.9798 28.2762 20 139.973 139.973 28.2762 20 
-0.0040371 -0.0130682 -0.0120953 2.11935e+06 28 44 139.973 99.9798 28.2762 20 119.976 79.9832 56.5557 20 
-0.00862938 0.00906719 -0.0125134 2.11935e+06 28 48 139.973 99.9798 28.2762 20 119.976 119.976 56.5557 20 
0.00432043 0.00257334 0.00487463 2.11934e+06 32 1 -20 139.973 28.2762 20 -0.0033618 159.97 -0.0033618 20 
8.52536e-15 -0.00227778 -0.00283044 2.11935e+06 32 31 -20 139.973 28.2762 20 -59.9933 139.973 28.2762 20 
7.44486e-18 0.000241217 -0.00275862 2.11935e+06 32 29 -20 139.973 28.2762 20 19.9933 139.973 28.2762 20 
-0.0130657 -0.00904926 -0.0156376 2.11935e+06 32 48 -20 139.973 28.2762 20 -39.9966 119.976 56.5557 20 
0.0100517 -0.0090231 -0.0134879 2.11935e+06 32 45 -20 139.973 28.2762 20 -0.00336181 119.976 56.5557 20 
-0.00658774 0.00735748 -0.00986076 2.11934e+06 32 36 -20 139.973 28.2762 20 -39.9966 159.97 56.5557 20 
0.00660398 0.00301892 0.00680442 2.11934e+06 29 2 19.9933 139.973 28.2762 20 39.9899 159.97 -0.0033618 20 
-8.5597e-15 -0.000398965 0.00184559 2.11935e+06 29 30 19.9933 139.973 28.2762 20 59.9866 139.973 28.2762 20 
-0.010378 -0.00832784 -0.013227 2.11935e+06 29 45 19.9933 139.973 28.2762 20 -0.00336181 119.976 56.5557 20 
0.0125589 -0.00658065 -0.0135337 2.11935e+06 29 46 19.9933 139.973 28.2762 20 39.9899 119.976 56.5557 20 
-0.011954 0.00744887 -0.0137199 2.11934e+06 29 33 19.9933 139.973 28.2762 20 -0.0033618 159.97 56.5557 20 
0.00451778 0.000821512 0.00377545 2.11934e+06 30 3 59.9866 139.973 28.2762 20 79.9832 159.97 -0.0033618 20 
-8.54738e-15 -0.00171389 -0.00237252 2.11935e+06 30 31 59.9866 139.973 28.2762 20 99.9798 139.973 28.2762 20 
-0.00876538 -0.00908736 -0.0126238 2.11935e+06 30 46 59.9866 139.973 28.2762 20 39.9899 119.976 56.5557 20 
0.00644679 -0.0120325 -0.0130668 2.11935e+06 30 47 59.9866 139.973 28.2762 20 79.9832 119.976 56.5557 20 
-0.00648901 0.00752285 -0.00990788 2.11934e+06 30 34 59.9866 139.973 28.2762 20 39.9899 159.97 56.5557 20 
-0.00226281 0.00714366 0.00345129 2.11934e+06 31 4 99.9798 139.973 28.2762 20 119.976 159.97 -0.0033618 20 
-0.0108767 -0.00681624 -0.0125108 2.11935e+06 31 47 99.9798 139.973 28.2762 20 79.9832 119.976 56.5557 20 
0.0105122 -0.00709491 -0.0124501 2.11935e+06 31 48 99.9798 139.973 28.2762 20 119.976 119.976 56.5557 20 
-0.00436421 0.01051 -0.0105176 2.11934e+06 31 35 99.9798 139.973 28.2762 20 79.9832 159.97 56.5557 20 
-0.0100615 -0.0103379 0.0144245 2.11935e+06 33 32 -0.00336181 -0.00336181 56.5557 20 -20 -20 28.2762 20 
-0.00546123 0.0130182 0.0130669 2.11935e+06 33 20 -0.00336181 -0.00336181 56.5557 20 -20 19.9933 28.2762 20 
-0.00055346 -1.35033e-18 0.000115602 2.11935e+06 33 45 -0.00336181 -0.00336181 56.5557 20 -0.0033618 -39.9966 56.5557 20 
2.00083e-16 0.00211541 0.00888679 2.11935e+06 33 34 -0.00336181 -0.00336181 56.5557 20 39.9899 -0.00336181 56.5557 20 
0.000176085 -8.37899e-15 0.00821816 2.11935e+06 33 37 -0.00336181 -0.00336181 56.5557 20 -0.00336181 39.9899 56.5557 20 
0.00854523 -0.000545817 -0.00642834 2.11934e+06 33 61 -0.00336181 -0.00336181 56.5557 20 19.9933 -20 84.8352 20 
-0.00172421 0.0098903 -0.0082127 2.11935e+06 33 52 -0.00336181 -0.00336181 56.5557 20 -20 19.9933 84.8352 20 
0.00260126 0.00688519 -0.00670794 2.11935e+06 33 49 -0.00336181 -0.00336181 56.5557 20 19.9933 19.9933 84.8352 20 
-0.0111206 -0.00458513 0.0111056 2.11935e+06 34 29 39.9899 -0.00336181 56.5557 20 19.9933 -20 28.2762 20 
-0.000205435 -8.64116e-15 -0.00617393 2.11935e+06 34 46 39.9899 -0.00336181 56.5557 20 39.9899 -39.9966 56.5557 20 
8.56086e-15 -0.000460043 -0.00257905 2.11935e+06 34 35 39.9899 -0.00336181 56.5557 20 79.9832 -0.00336181 56.5557 20 
-0.000625718 -8.55698e-15 0.00333821 2.11935e+06 34 38 39.9899 -0.00336181 56.5557 20 39.9899 39.9899 56.5557 20 
0.00364228 -0.0124134 -0.0113531 2.11934e+06 34 62 39.9899 -0.00336181 56.5557 20 59.9866 -20 84.8352 20 
-0.00675052 0.00789142 -0.0103534 2.11935e+06 34 49 39.9899 -0.00336181 56.5557 20 19.9933 19.9933 84.8352 20 
0.0076947 0.0141704 -0.015461 2.11935e+06 34 50 39.9899 -0.00336181 56.5557 20 59.9866 19.9933 84.8352 20 
-0.00317371 -0.0108249 0.00989854 2.11935e+06 35 30 79.9832 -0.00336181 56.5557 20 59.9866 -20 28.2762 20 
0.00160236 -1.85533e-16 -0.00898845 2.11935e+06 35 47 79.9832 -0.00336181 56.5557 20 79.9832 -39.9966 56.5557 20 
-8.5318e-15 -0.00120945 0.00253493 2.11935e+06 35 36 79.9832 -0.00336181 56.5557 20 119.976 -0.00336181 56.5557 20 
0.000735293 9.36029e-19 0.000820172 2.11935e+06 35 39 79.9832 -0.00336181 56.5557 20 79.9832 39.9899 56.5557 20 
0.0114878 -0.010337 -0.0154324 2.11935e+06 35 63 79.9832 -0.00336181 56.5557 20 99.9798 -20 84.8352 20 
-0.00637651 0.0152902 -0.0153207 2.11935e+06 35 50 79.9832 -0.00336181 56.5557 20 59.9866 19.9933 84.8352 20 
0.00501195 0.0109077 -0.0112569 2.11935e+06 35 51 79.9832 -0.00336181 56.5557 20 99.9798 19.9933 84.8352 20 
-0.00321702 -0.00858083 0.00834234 2.11935e+06 36 31 119.976 -0.00336181 56.5557 20 99.9798 -20 28.2762 20 
-0.00139819 -6.67414e-16 -0.0153823 2.11935e+06 36 48 119.976 -0.00336181 56.5557 20 119.976 -39.9966 56.5557 20 
8.90853e-15 -0.00022448 -0.011243 2.11934e+06 36 33 119.976 -0.00336181 56.5557 20 159.97 -0.0033618 56.5557 20 
-0.000543436 1.63706e-16 -0.00709649 2.11935e+06 36 40 119.976 -0.00336181 56.5557 20 119.976 39.9899 56.5557 20 
0.0131447 -0.00611867 -0.0136213 2.11934e+06 36 64 119.976 -0.00336181 56.5557 20 139.973 -20 84.8352 20 
-0.0149945 -0.00793343 -0.0162125 2.11935e+06 36 63 119.976 -0.00336181 56.5557 20 99.9798 -20 84.8352 20 
-0.00493965 0.0121774 -0.0121036 2.11935e+06 36 51 119.976 -0.00336181 56.5557 20 99.9798 19.9933 84.8352 20 
0.00388518 0.0142175 -0.0128006 2.11934e+06 36 52 119.976 -0.00336181 56.5557 20 139.973 19.9933 84.8352 20 
-0.00271972 -0.0112939 0.0099091 2.11935e+06 37 20 -0.00336181 39.9899 56.5557 20 -20 19.9933 28.2762 20 
-0.0103275 0.00386478 0.0100355 2.11935e+06 37 24 -0.00336181 39.9899 56.5557 20 -20 59.9866 28.2762 20 
0 -0.0020037 -0.00068349 2.11935e+06 37 38 -0.00336181 39.9899 56.5557 20 39.9899 39.9899 56.5557 20 
-0.00074406 8.70438e-15 0.00676016 2.11935e+06 37 41 -0.00336181 39.9899 56.5557 20 -0.00336181 79.9832 56.5557 20 
-0.00684729 -0.00890987 -0.011142 2.11935e+06 37 52 -0.00336181 39.9899 56.5557 20 -20 19.9933 84.8352 20 
0.00804248 -0.00672828 -0.0104445 2.11935e+06 37 49 -0.00336181 39.9899 56.5557 20 19.9933 19.9933 84.8352 20 
0.0117195 0.00848703 -0.0142882 2.11935e+06 37 53 -0.00336181 39.9899 56.5557 20 19.9933 59.9866 84.8352 20 
0 0.000486196 -0.00149635 2.11935e+06 38 39 39.9899 39.9899 56.5557 20 79.9832 39.9899 56.5557 20 
2.2702e-05 1.11454e-16 -0.00644623 2.11935e+06 38 42 39.9899 39.9899 56.5557 20 39.9899 79.9832 56.5557 20 
-0.0102001 -0.00560696 -0.0111773 2.11935e+06 38 49 39.9899 39.9899 56.5557 20 19.9933 19.9933 84.8352 20 
0.0116544 -0.0110543 -0.0160575 2.11935e+06 38 50 39.9899 39.9899 56.5557 20 59.9866 19.9933 84.8352 20 
-0.016175 0.0064451 -0.0159948 2.11935e+06 38 53 39.9899 39.9899 56.5557 20 19.9933 59.9866 84.8352 20 
0.0117445 0.00735946 -0.0135086 2.11935e+06 38 54 39.9899 39.9899 56.5557 20 59.9866 59.9866 84.8352 20 
8.14271e-17 0.000951519 -0.00602911 2.11935e+06 39 40 79.9832 39.9899 56.5557 20 119.976 39.9899 56.5557 20 
0.00083868 9.36876e-17 -0.00692032 2.11935e+06 39 43 79.9832 39.9899 56.5557 20 79.9832 79.9832 56.5557 20 
-0.00865531 -0.0127225 -0.0151164 2.11935e+06 39 50 79.9832 39.9899 56.5557 20 59.9866 19.9933 84.8352 20 
0.00695275 -0.00742449 -0.0101662 2.11935e+06 39 51 79.9832 39.9899 56.5557 20 99.9798 19.9933 84.8352 20 
-0.00584934 0.00992573 -0.0111547 2.11935e+06 39 54 79.9832 39.9899 56.5557 20 59.9866 59.9866 84.8352 20 
0.00766927 0.00817304 -0.0112022 2.11935e+06 39 55 79.9832 39.9899 56.5557 20 99.9798 59.9866 84.8352 20 
8.29278e-17 0.000718682 0.00612854 2.11934e+06 40 37 119.976 39.9899 56.5557 20 159.97 39.9899 56.5557 20 