ITEM: TIMESTEP
0
ITEM: NUMBER OF ATOMS
128
ITEM: BOX BOUNDS pp pp pp
-2.0000000000000000e+01 1.4000000000000000e+02
-2.0000000000000000e+01 1.4000000000000000e+02
-2.0000000000000000e+01 2.0627416997969522e+02
ITEM: ATOMS id vx vy vz fx fy fz
1 0 0 0 0 0 0
2 0 0 0 0 0 0
3 0 0 0 0 0 0
4 0 0 0 0 0 0
5 0 0 0 0 0 0
6 0 0 0 0 0 0
7 0 0 0 0 0 0
8 0 0 0 0 0 0
9 0 0 0 0 0 0
10 0 0 0 0 0 0
11 0 0 0 0 0 0
12 0 0 0 0 0 0
13 0 0 0 0 0 0
14 0 0 0 0 0 0
15 0 0 0 0 0 0
16 0 0 0 0 0 0
32 0 0 0 0 0 0
29 0 0 0 0 0 0
30 0 0 0 0 0 0
31 0 0 0 0 0 0
20 0 0 0 0 0 0
17 0 0 0 0 0 0
18 0 0 0 0 0 0
19 0 0 0 0 0 0
24 0 0 0 0 0 0
21 0 0 0 0 0 0
22 0 0 0 0 0 0
23 0 0 0 0 0 0
28 0 0 0 0 0 0
25 0 0 0 0 0 0
26 0 0 0 0 0 0
27 0 0 0 0 0 0
33 0 0 0 0 0 0
34 0 0 0 0 0 0
35 0 0 0 0 0 0
36 0 0 0 0 0 0
37 0 0 0 0 0 0
38 0 0 0 0 0 0
39 0 0 0 0 0 0
40 0 0 0 0 0 0
41 0 0 0 0 0 0
42 0 0 0 0 0 0
43 0 0 0 0 0 0
44 0 0 0 0 0 0
45 0 0 0 0 0 0
46 0 0 0 0 0 0
47 0 0 0 0 0 0
48 0 0 0 0 0 0
64 0 0 0 0 0 0
61 0 0 0 0 0 0
62 0 0 0 0 0 0
63 0 0 0 0 0 0
52 0 0 0 0 0 0
49 0 0 0 0 0 0
50 0 0 0 0 0 0
51 0 0 0 0 0 0
56 0 0 0 0 0 0
53 0 0 0 0 0 0
54 0 0 0 0 0 0
55 0 0 0 0 0 0
60 0 0 0 0 0 0
57 0 0 0 0 0 0
58 0 0 0 0 0 0
59 0 0 0 0 0 0
65 0 0 0 0 0 0
66 0 0 0 0 0 0
67 0 0 0 0 0 0
68 0 0 0 0 0 0
69 0 0 0 0 0 0
70 0 0 0 0 0 0
71 0 0 0 0 0 0
72 0 0 0 0 0 0
73 0 0 0 0 0 0
74 0 0 0 0 0 0
75 0 0 0 0 0 0
76 0 0 0 0 0 0
77 0 0 0 0 0 0
78 0 0 0 0 0 0
79 0 0 0 0 0 0
80 0 0 0 0 0 0
96 0 0 0 0 0 0
93 0 0 0 0 0 0
94 0 0 0 0 0 0
95 0 0 0 0 0 0
84 0 0 0 0 0 0
81 0 0 0 0 0 0
82 0 0 0 0 0 0
83 0 0 0 0 0 0
88 0 0 0 0 0 0
85 0 0 0 0 0 0
86 0 0 0 0 0 0
87 0 0 0 0 0 0
92 0 0 0 0 0 0
89 0 0 0 0 0 0
90 0 0 0 0 0 0
91 0 0 0 0 0 0
97 0 0 0 0 0 0
98 0 0 0 0 0 0
99 0 0 0 0 0 0
100 0 0 0 0 0 0
101 0 0 0 0 0 0
102 0 0 0 0 0 0
103 0 0 0 0 0 0
104 0 0 0 0 0 0
105 0 0 0 0 0 0
106 0 0 0 0 0 0
107 0 0 0 0 0 0
108 0 0 0 0 0 0
109 0 0 0 0 0 0
110 0 0 0 0 0 0
111 0 0 0 0 0 0
112 0 0 0 0 0 0
128 0 0 0 0 0 0
125 0 0 0 0 0 0
126 0 0 0 0 0 0
127 0 0 0 0 0 0
116 0 0 0 0 0 0
113 0 0 0 0 0 0
114 0 0 0 0 0 0
115 0 0 0 0 0 0
120 0 0 0 0 0 0
117 0 0 0 0 0 0
118 0 0 0 0 0 0
119 0 0 0 0 0 0
124 0 0 0 0 0 0
121 0 0 0 0 0 0
122 0 0 0 0 0 0
123 0 0 0 0 0 0
ITEM: TIMESTEP
10000
ITEM: NUMBER OF ATOMS
128
ITEM: BOX BOUNDS pp pp pp
-2.0000000000000000e+01 1.3997310555208477e+02
-2.0000000000000000e+01 1.3997310555208477e+02
-2.0000000000000000e+01 2.0623613548672003e+02
ITEM: ATOMS id vx vy vz fx fy fz
1 -3.82543e-13 -2.70497e-13 -1.37607e-12 -0.00180867 -0.000360489 -0.00124027
2 7.15815e-13 -3.37871e-13 -2.08515e-13 -0.00119401 0.00139879 -0.00304526
3 -4.25383e-13 -1.48455e-13 -1.36253e-12 0.000664499 -0.00187691 0.00263665
4 1.19034e-13 4.63961e-13 -1.166e-12 0.00536264 -0.00390746 0.00317777
5 -3.1769e-13 1.05372e-12 -1.22287e-12 -0.000536376 -0.00411814 -0.00763611
6 1.11182e-12 1.24058e-12 -9.15554e-13 0.00290552 0.00111812 -0.00360436
7 -7.14012e-13 8.09998e-13 1.80214e-14 -0.00442777 -0.00117966 -0.00298378
8 2.02285e-13 7.20905e-13 -8.84524e-13 0.00480067 0.000803387 0.00271195
9 -4.00638e-13 -6.16705e-13 -1.19575e-12 -0.00368773 0.0003355 -0.00642843
10 1.22453e-12 -1.19736e-12 -1.06854e-12 0.0016751 -0.00299318 -0.00409361
11 -8.74023e-13 -4.54591e-13 -1.60436e-13 -0.00157266 0.000998774 -0.00569875
12 6.21541e-13 -2.88738e-13 -4.10658e-13 0.00458994 0.00210039 -0.00316995
13 -3.30149e-13 -2.29472e-13 -1.84587e-12 -0.00270233 0.00521794 -0.00269299
14 1.57868e-12 4.18636e-13 -6.22374e-13 0.000594711 0.00161333 0.00498865
15 -1.01434e-12 1.71595e-14 -1.8019e-12 0.00121811 0.00512 -0.00125263
16 1.33192e-13 -4.31528e-13 -6.8485e-13 0.00209008 0.00152645 0.00624218
17 9.41719e-13 1.46787e-13 1.06925e-12 0.000872582 0.00176964 0.00632026
18 -8.78878e-14 5.22376e-13 6.18778e-13 -0.000126374 0.00335208 0.00396122
19 -6.84348e-13 6.53995e-13 -3.083e-13 -0.00438741 0.000481057 0.0105435
20 -1.96651e-13 4.62401e-13 2.62126e-13 0.000448287 0.00142218 0.00741839
21 8.84561e-13 -2.66309e-13 9.24474e-13 0.00110627 -0.000130755 0.00739282
22 -2.90725e-13 -3.7691e-13 2.74724e-13 0.0019179 -0.000622243 0.00972126
23 1.95037e-13 -3.95023e-13 -3.79283e-13 -0.00763038 0.000628728 0.0112989
24 -7.56821e-13 -1.27763e-13 -9.86343e-13 0.000399524 -0.000330895 0.0118245
25 5.24966e-13 -1.01391e-13 4.65645e-13 0.00401823 -0.00433173 0.00691049
26 -5.62762e-13 -9.51134e-14 -2.43383e-13 8.45879e-05 -0.0045607 0.0110622
27 3.16859e-13 -3.73991e-14 -2.29482e-13 -0.00638084 -0.0061982 0.00838555
28 -6.80938e-13 -3.11465e-13 -1.35055e-13 -0.00158919 -0.0038864 0.0110768
32 -5.7545e-13 -3.68663e-13 5.25929e-13 -0.000323445 -5.72145e-05 0.00427533
29 6.42104e-13 -2.75912e-13 9.05937e-13 0.00147986 -2.35319e-05 0.002595
30 -1.02912e-13 -4.01979e-13 2.27518e-13 0.00169767 0.0018534 0.00697708
31 -7.53134e-14 -1.67211e-13 8.75034e-13 -0.00410764 0.00170901 0.00446066
33 -3.97217e-13 -4.99914e-13 -4.21364e-13 -0.00163101 -0.00214583 -0.0145008
34 8.76819e-13 -4.19023e-13 -1.45484e-12 0.000524509 -0.000781065 -0.0151621
35 -6.62881e-13 -5.62266e-13 -1.59616e-12 0.00252161 -0.000153553 -0.0132359
36 2.80538e-13 -7.71854e-13 1.53702e-12 0.00125653 -0.000326002 -0.0304357
37 4.11474e-15 6.23786e-13 -2.40914e-13 -1.95801e-05 -0.00182876 -0.016857
38 7.30459e-13 7.78713e-13 -9.86582e-13 0.0017637 0.00190409 -0.0158707
39 -9.14299e-13 2.83389e-13 -3.00003e-14 -6.22511e-05 -0.000912505 -0.0278732
40 3.00993e-13 9.40873e-13 5.33759e-15 0.000605559 0.000329876 -0.0276786
41 -8.57298e-15 -8.8706e-13 2.18414e-13 -2.19524e-05 0.00139747 -0.0239497
42 4.9771e-13 -7.34244e-13 1.12121e-12 0.000495338 -0.000470233 -0.0269581
43 -6.3305e-13 -6.21069e-13 4.19859e-13 0.000461724 -0.00153792 -0.0278662
44 2.85828e-13 -9.42041e-13 1.05372e-12 0.00154811 0.00278308 -0.0307517
45 -1.04897e-13 6.44053e-13 1.91516e-12 -0.000485975 0.0038546 -0.0230641
46 7.05483e-13 7.42896e-14 -6.23273e-15 -0.00131642 0.00109465 -0.022971
47 -7.30878e-13 5.6894e-13 5.86422e-13 0.00222982 0.00272132 -0.0272415
48 2.38365e-13 7.73212e-13 1.90104e-12 0.00141293 0.00199528 -0.0261951
63 -5.91613e-14 -8.71991e-13 -1.82315e-12 -0.00979021 0.00721808 0.0157767
52 -6.3076e-13 4.01954e-13 -4.24782e-13 0.00697994 -0.0031833 0.0256437
49 -4.7191e-13 7.23693e-13 6.12517e-13 -0.00125811 -0.00262179 0.0171217
50 4.15025e-13 2.05426e-13 -2.00712e-12 0.00188385 -0.00431579 0.0145694
51 2.89215e-13 7.92971e-13 -1.06204e-12 -0.0102953 -0.00331063 0.0110865
53 -6.73488e-14 -7.98707e-14 -1.10883e-12 0.00153016 0.000452462 0.0233539
54 4.01739e-13 4.76967e-13 -1.18421e-12 0.00251877 0.00196526 0.0159731
55 -1.84516e-13 -1.82488e-13 -1.18623e-12 -0.00820336 0.00124579 0.0159724
56 -3.12452e-13 -4.52642e-13 1.78489e-13 0.00544446 0.000819504 0.0180142
57 5.11047e-13 5.86384e-13 -2.17285e-12 9.56833e-05 -0.00611918 0.0183609
58 1.16257e-14 3.19003e-13 -4.31219e-13 -0.00015547 -0.0074536 0.0239155
59 -3.43359e-13 3.03143e-13 -1.52453e-12 -0.00722107 -0.00878609 0.0173662
60 -1.31558e-13 3.88378e-13 -1.99297e-12 0.00786539 -0.00805044 0.0172742
64 -3.80116e-13 -8.61532e-13 -1.04146e-12 0.00819923 0.0071797 0.0207154
61 3.95982e-13 -1.21967e-12 -1.45501e-12 0.00150504 0.00552075 0.0174824
62 7.2048e-14 -1.66984e-12 -6.20742e-13 -0.00118941 0.00457706 0.0202038
65 -8.16587e-13 1.53391e-13 -1.61067e-12 -0.0019327 0.00108882 0.00284785
66 8.04683e-13 -4.5428e-13 4.2271e-13 -0.00453356 -0.00284973 -0.00270128
67 -4.85028e-13 -5.706e-13 -2.82128e-12 -0.00180699 -0.00245405 -0.00259123
68 4.8074e-13 -1.69771e-14 -1.06834e-12 0.0080276 0.00249074 0.00265388
69 -7.09854e-13 1.23972e-12 -2.39437e-12 -0.00431841 0.00216777 -0.00328019
70 6.37879e-13 8.06845e-13 6.62038e-13 -0.00701393 0.00275621 -0.00286505
71 -6.80505e-13 1.14382e-12 -2.3844e-12 0.00241009 0.00249647 -0.00831071
72 8.45449e-13 9.44943e-13 -1.16887e-12 0.00964978 -0.00162813 0.0151774
73 -7.22437e-13 -1.07012e-12 2.13692e-13 0.00150493 -0.00379592 0.00826582
74 8.13844e-13 -3.38451e-13 1.59728e-12 -0.00069201 0.00424577 0.00966711
75 -3.3958e-13 -2.96548e-14 -1.7202e-12 -0.00306675 0.00367859 -0.00645913
76 4.98432e-14 -4.34852e-13 -4.71408e-13 0.00504507 -0.00160461 0.00208536
77 -6.43573e-13 2.63345e-14 -2.56693e-12 0.000568977 0.00320033 -0.00157444
78 1.08743e-12 -7.22509e-13 -2.46462e-12 -0.000352442 0.00230726 -0.00123491
79 -3.92788e-13 -5.28597e-13 -2.65725e-12 -0.00358403 -0.000252157 -0.00335274
80 -1.35919e-13 -3.92081e-13 -8.78663e-13 0.00769827 0.00687533 0.0128468
96 -3.89941e-13 -4.29806e-13 4.18263e-12 -0.00340493 0.00146331 -0.0294913
93 1.12346e-13 1.10429e-13 5.38931e-12 0.00479357 0.00157477 -0.01835
94 -2.20688e-14 -3.1463e-13 3.55479e-12 -0.00464979 0.00159182 -0.0198104
95 -3.23327e-13 -5.04423e-13 3.24729e-12 -0.000227016 0.000363949 -0.00214983
81 1.31673e-12 6.73317e-13 5.41367e-12 0.00221674 -0.0040449 -0.0143783
82 -7.41906e-13 1.53779e-12 2.99139e-12 -0.00280135 0.000224817 0.00535933
83 -3.53403e-13 4.90156e-13 3.14458e-12 -0.00225914 0.00189973 -0.018314
84 -5.21148e-13 -1.71389e-13 2.48806e-12 -0.00190802 -0.00123978 -0.0385754
88 -8.76518e-14 4.22733e-13 6.42043e-13 0.00494047 0.00294088 -0.0392269
85 1.32709e-12 -2.03787e-13 2.93004e-12 0.000869679 0.00516556 -0.0390705
86 -1.06396e-12 -6.38157e-13 3.81681e-12 -0.00559134 -0.00119868 -0.0212066
87 -4.19448e-13 -1.22833e-13 1.91055e-12 -0.00327517 -0.00149251 -0.0158676
92 -8.33231e-13 -1.74153e-13 3.56818e-12 0.00181178 -0.00498744 -0.00443341
89 4.50349e-13 -9.04102e-13 3.377e-12 0.00444464 -0.00714973 -0.0260579
90 -2.49196e-13 -4.43524e-13 1.69463e-12 -0.00514706 -0.00374547 -0.0389773
91 1.79899e-13 -9.66148e-14 -4.78069e-13 -0.00121588 -0.00229706 -0.0109871
97 1.22218e-13 -1.14358e-12 -3.31829e-12 0.00342038 -0.00100489 0.0307873
98 5.48193e-13 -6.85081e-13 -3.86352e-12 0.00040406 0.000266871 0.0121205
99 -7.62953e-13 -7.21441e-13 -1.6014e-13 0.000637829 -0.00131306 0.044833
100 7.00891e-13 -1.0528e-12 -3.81375e-12 9.0301e-06 -0.00200577 0.015842
101 4.65166e-15 6.70904e-13 -1.86322e-12 0.00275235 -3.33399e-05 0.0415803
102 3.27507e-13 9.70126e-14 -6.09126e-12 0.00037092 -0.00637486 0.0105954
103 -2.77117e-13 1.1809e-12 -5.66856e-12 0.00679917 -0.00137729 0.0322222
104 8.17525e-14 1.0688e-12 1.29169e-12 -0.00366668 0.00154585 0.0343405
105 -5.47332e-14 -9.81364e-14 -3.17549e-12 -0.00327131 0.00416313 0.0326933
106 4.5512e-13 -4.43687e-13 -4.22847e-12 -0.00441734 0.00119834 0.027136
107 -7.4208e-13 -1.21939e-12 7.30648e-13 0.00813614 -0.000605232 0.0320708
108 3.52563e-13 -9.57532e-13 2.04642e-13 0.000982976 -0.000391906 0.0461754
109 -1.25976e-13 5.84376e-13 -4.12001e-12 -0.00171869 0.00101167 0.0250491
110 4.63856e-13 8.79137e-13 -1.70047e-12 -0.00244153 0.00643225 0.0130936
111 -1.19748e-12 9.45483e-13 3.35271e-13 0.00262384 0.00467623 0.0336138
112 9.69952e-13 9.72454e-13 -3.63891e-12 0.00324595 0.00276956 0.00100155
127 -1.20228e-13 -7.11615e-13 2.84938e-12 -0.0168547 0.00579685 -0.010559
116 -8.52772e-13 1.08367e-12 3.71779e-12 0.00545621 0.00193462 -0.00710769
113 -1.04157e-13 2.76218e-13 4.26496e-12 -0.00433008 0.00276951 -0.0023286
114 1.91698e-13 2.41393e-13 3.3451e-12 0.00522596 -0.00092251 -0.00176764
115 5.91344e-13 6.21308e-13 1.15394e-12 -0.0126366 0.00259368 -0.0346732
120 -7.2474e-13 -4.85119e-13 1.90363e-12 0.00284708 0.00184282 -0.012288
117 -5.38229e-13 9.47288e-15 4.92773e-12 -0.00540345 0.000285429 -0.00321462
118 3.38139e-13 2.33143e-13 3.78919e-12 0.00566999 0.00280774 -0.00588784
119 6.09645e-13 3.8249e-14 -1.60827e-12 -0.00772263 0.00354378 -0.0160656
124 -1.86218e-13 -1.96764e-13 3.44166e-12 0.0043585 -0.00959264 -0.00765492
121 -2.76047e-13 2.83972e-13 1.91138e-12 -0.00245861 -0.0107534 -0.0077466
122 9.72789e-13 8.27592e-13 2.71068e-12 0.00983242 -0.00921084 -0.00972908
123 -2.18529e-13 -1.53669e-13 1.31116e-12 -0.00953839 -0.0104675 -0.0167288
128 -5.88545e-13 -6.08741e-13 1.52839e-12 0.00830323 0.00694541 -0.00735769
125 8.31284e-13 -4.43313e-13 2.67574e-12 -0.0075114 0.00774632 -0.00679148
126 -1.67658e-13 -1.14239e-12 1.47684e-12 0.0115573 0.00149312 -0.020719
ITEM: TIMESTEP
20000
ITEM: NUMBER OF ATOMS
128
ITEM: BOX BOUNDS pp pp pp
-2.0000000000000000e+01 1.3997309188524576e+02
-2.0000000000000000e+01 1.3997309188524576e+02
-2.0000000000000000e+01 2.0623611615888987e+02
ITEM: ATOMS id vx vy vz fx fy fz
1 5.31318e-13 9.83053e-13 -2.69021e-12 0.00289282 -0.000946748 0.00390412
2 -7.0092e-13 1.21536e-12 -2.43635e-12 0.00019353 -0.00267903 0.00334738
3 1.40584e-12 7.1968e-13 -2.15228e-12 0.00316447 0.000142258 0.0100894
4 -1.92114e-12 7.26332e-13 -2.59668e-12 -0.00662696 0.0020483 0.00045374
5 4.02633e-13 -9.7112e-13 -1.64192e-12 0.00336232 0.00155626 0.000141746
6 -2.61051e-14 -7.9449e-13 -6.54005e-13 -0.000233078 0.00142828 0.0142698
7 8.18491e-13 -6.48047e-13 -1.81111e-12 0.00196579 0.000270715 0.00651367
8 -1.47914e-12 -1.19685e-12 -2.03851e-12 -0.00597638 4.60625e-05 -0.00566967
9 -1.08376e-13 9.16301e-13 -1.79022e-12 0.00541609 0.00158035 0.00210342
10 2.09648e-13 2.72823e-13 -2.60141e-13 0.00124677 0.00277627 0.00210473
11 1.27579e-12 7.03011e-13 -1.85978e-12 -0.00105093 0.00292869 0.0120384
12 -1.66707e-12 1.14301e-12 -2.27708e-12 -0.00588526 0.00101386 0.0123536
13 -2.02681e-14 -1.71674e-12 -2.16391e-12 0.00138239 -0.00464322 0.00049898
14 -2.05552e-13 -1.04783e-12 -1.41646e-12 0.00350235 -0.00357025 -0.00451776
15 1.70044e-12 -1.53483e-12 -2.13459e-12 -0.00189214 -0.0047013 0.00794337
16 -2.0807e-12 -1.89471e-12 -2.34058e-12 -0.00617466 -0.00428417 0.00847674
17 3.59127e-13 1.23156e-13 1.97492e-12 0.00191222 0.000778431 -0.00276997
18 -1.7954e-13 2.76049e-13 1.9941e-12 -0.000569546 0.00169209 -0.000440392
19 -5.02643e-14 -2.42013e-13 -1.28882e-12 -0.00181981 -0.00117015 -0.00506051
20 1.01583e-12 -2.49319e-14 -1.92151e-12 0.00255154 0.000198358 0.00102683
21 7.34795e-13 -1.29628e-13 8.69937e-13 0.000452948 -9.90808e-05 -0.00536085
22 -7.98982e-13 -5.11525e-14 1.771e-12 0.00329109 -0.000804389 -0.00510294
23 -1.01505e-13 2.73235e-13 -1.21253e-13 -0.0026562 0.00391663 -0.00120035
24 1.21511e-12 2.60798e-13 3.13313e-13 0.00199497 -0.00147538 0.000891238
25 2.9105e-14 -4.97469e-14 1.85319e-12 -0.00144061 0.000389823 -0.00148973
26 5.18497e-14 -3.05358e-13 2.99984e-12 0.0039278 -0.00170801 -0.00425311
27 4.99317e-13 2.35539e-13 -6.33412e-13 -0.000461099 0.000353491 -0.0115317
28 7.71442e-13 1.66123e-13 1.03128e-12 -0.00145788 0.00104313 0.00255107
32 8.65171e-13 4.83966e-13 -4.21724e-14 -0.000630257 0.00166684 -0.0057915
29 1.93784e-14 1.02323e-12 1.35639e-12 0.000687277 0.00192025 -0.00579311
30 -8.95406e-14 7.81165e-13 2.62412e-12 0.000143328 0.00415609 -0.0102619
31 2.58785e-13 7.09579e-13 1.52665e-13 0.000225645 -0.00286965 -0.0107139
33 9.45786e-13 2.14555e-13 4.38248e-12 -0.00011656 0.00063616 -0.00585339
34 -2.03733e-13 3.95454e-13 4.11152e-12 0.00293547 0.0013314 -0.00859552
35 -5.51817e-13 2.26273e-13 5.01169e-12 0.000874248 0.00156493 -0.00157084
36 -1.2553e-12 -9.91694e-14 5.44075e-12 -0.00303796 0.00117683 0.00215044
37 6.41003e-13 -3.01134e-13 4.41342e-12 -0.00254233 0.00426258 -0.00736536
38 -2.91304e-13 -7.22094e-13 3.38894e-12 0.00488639 0.000650105 -0.0128991
39 -7.57952e-13 -8.99016e-14 5.14178e-12 -0.00132331 0.00124094 -0.01406
40 -1.24807e-12 -4.38925e-13 3.97769e-12 -0.00178453 0.000857449 0.00343661
41 7.12614e-13 8.00384e-13 4.52801e-12 -0.00210188 0.00140213 -0.00219381
42 -8.36525e-14 7.03111e-13 2.31525e-12 0.000444844 0.000654507 -0.00589238
43 5.03226e-14 6.6074e-13 3.91003e-12 0.0011822 0.000734091 -0.018442
44 -1.81747e-12 1.13172e-12 4.01299e-12 -0.00295659 0.00313417 -0.0134243
45 8.19209e-13 -1.83082e-12 4.11246e-12 0.00198018 -0.00672457 -0.00867147
46 -4.9301e-13 -1.6748e-12 4.45048e-12 0.00262022 -0.00527562 -0.00079245
47 5.27726e-14 -1.73754e-12 4.28442e-12 0.00150802 -0.00647174 0.00079242
48 -1.46089e-12 -1.61995e-12 3.81789e-12 -0.00435585 -0.00678322 -0.00462972
63 -2.55247e-14 6.77949e-13 3.62742e-13 0.000522923 -0.000788292 0.00984681
52 1.1511e-12 4.37337e-13 7.02216e-13 -0.00406127 0.00203822 0.00709619
49 3.92117e-13 -1.56684e-13 -8.00241e-13 0.000519955 0.00367198 0.0150853
50 -2.51237e-14 -7.57224e-13 -5.62348e-13 -0.000452662 0.000478336 0.014473
51 -8.45697e-13 -4.89702e-13 -1.08565e-12 0.00280263 0.000280988 0.00610691
53 -4.17912e-13 -9.96639e-14 -4.86929e-13 0.000194755 -0.00112402 0.00932932
54 9.70629e-14 -1.32206e-13 -6.32862e-13 -0.0017994 0.00120027 0.0249909
55 -8.07061e-13 -7.91381e-14 -2.14257e-12 0.00158355 -0.000782859 0.0125081
56 1.85666e-12 -2.3059e-13 5.07826e-13 0.00254468 -0.00230192 0.00353788
57 1.99229e-14 -1.20867e-13 -1.80968e-12 -0.00108987 0.000533277 0.0030873
58 -1.69967e-13 2.51345e-13 -1.26168e-12 0.000831816 0.00125386 0.0115026
59 -3.99205e-13 3.39772e-13 3.46907e-13 0.000116774 0.00386586 0.012435
60 9.68661e-13 8.44868e-15 3.72397e-13 0.000646847 0.00106142 0.0067728
64 4.52182e-13 5.61853e-13 -3.57608e-13 -0.00191961 0.000205404 0.0123388
61 8.71579e-13 1.03224e-12 -1.12542e-12 0.00144834 -0.000492015 0.0168305
62 -4.98193e-13 1.24409e-12 4.55396e-14 0.000716382 -0.00144663 0.0163212
65 2.63315e-13 8.54397e-13 1.44824e-12 0.00283912 0.000178343 -0.0163162
66 -2.41202e-13 3.18242e-13 -2.53163e-12 0.00308322 0.00306038 -0.0168954
67 8.42966e-13 1.39435e-13 1.34417e-12 -0.00273943 0.000140333 -0.0208885
68 -1.10018e-12 4.19287e-13 -2.44631e-13 -0.00396108 0.00173336 -0.0139531
69 1.56702e-13 -1.81448e-13 -1.55412e-12 0.00340994 -0.000299555 -0.0130432
70 -6.57238e-13 7.61784e-14 -7.273e-13 0.000104141 -0.00182417 -0.0185498
71 1.35913e-12 -3.55372e-13 9.59317e-13 -0.000152117 0.00301436 -0.0208172
72 -8.25851e-13 -8.27707e-13 2.09813e-12 -0.00333272 0.00210207 -0.0119678
73 1.82351e-13 4.4592e-13 3.79622e-13 0.0018842 0.000442135 -0.0134052
74 -9.03835e-13 7.54144e-13 -3.35839e-13 0.00530463 0.0014634 -0.0102599
75 1.16006e-12 3.2133e-13 7.91869e-13 -0.00250442 -6.3023e-05 -0.0187282
76 -1.06756e-12 9.73664e-13 1.7808e-12 -0.00450975 -0.000510192 -0.00716562
77 1.23115e-13 -1.53619e-12 7.58613e-13 0.00108383 -0.00172542 -0.0157957
78 -1.08656e-12 -1.50769e-12 -7.47757e-13 0.00453381 -0.00332021 -0.0114376
79 1.57716e-12 -6.74011e-13 -1.51046e-12 -0.00282024 -0.00218758 -0.0214161
80 -1.40212e-12 -1.39388e-12 -3.61013e-13 -0.00405867 -0.00312643 -0.0172558
96 7.4755e-13 6.68211e-13 8.59035e-13 0.000629824 -0.00652778 0.0122386
93 -2.39562e-13 2.57608e-13 1.89752e-12 0.00244556 0.000765705 0.0150784
94 5.56237e-13 3.12479e-13 2.15272e-12 -0.00501924 -0.00240667 0.0110199
95 3.15338e-13 1.048e-12 9.261e-13 0.00260326 0.00219969 0.0177553
81 -2.07193e-13 -8.36352e-13 1.85836e-12 0.00215876 -0.000890535 0.0104808
82 1.03293e-12 -3.18119e-13 1.91746e-12 0.000354367 -0.00109351 0.00517938
83 4.03056e-13 8.81486e-13 6.5403e-13 0.00279894 0.00426385 0.0106977
84 -2.83165e-13 6.86636e-14 1.30702e-12 -0.00276479 0.00423374 0.0106701
88 -6.69883e-13 -5.65176e-13 4.09936e-13 -0.00301732 0.00339127 0.0108428
85 1.92282e-13 3.40592e-13 7.49387e-13 0.000104243 0.00221148 0.0141834
86 5.51287e-13 -2.19644e-13 9.28247e-13 0.000886869 0.00671201 0.0067175
87 6.82075e-13 -5.16359e-13 9.77423e-13 0.00352523 -0.00207974 0.0124705
92 5.14413e-13 6.83173e-13 8.0687e-13 0.000547564 -0.00205651 0.0171381
89 2.0314e-13 8.62689e-13 1.34284e-12 0.00108044 0.000109214 0.0154027
90 -4.11262e-13 9.22334e-13 2.12042e-12 -0.00303869 -0.00247611 0.0118342
91 3.20894e-13 -1.24475e-13 1.59477e-12 0.00243732 -0.00337309 0.0138847
97 -1.4648e-13 -3.82169e-13 -4.95073e-12 -0.001351 -0.000827843 0.00144416
98 -4.49402e-13 -2.81725e-13 -5.44814e-12 0.00258702 0.00207391 -0.00475592
99 6.6737e-13 5.28921e-13 -5.72377e-12 0.00243779 -0.000737143 0.00622127
100 -9.48827e-13 9.68589e-13 -4.47645e-12 -0.00455039 -0.00126116 0.0210578
101 -6.65227e-13 -6.7134e-13 -4.86591e-12 0.000322321 0.00237127 -0.000266945
102 -1.19879e-12 -8.41898e-13 -4.47178e-12 0.00147387 0.00416244 0.00566209
103 2.48004e-12 -7.99106e-13 -4.39784e-12 0.00251745 0.000394937 0.0184491
104 -2.23148e-12 -5.86607e-13 -5.02554e-12 -0.00461496 0.000406086 -0.00467264
105 1.0537e-12 6.99547e-13 -4.34933e-12 0.000241274 0.00191977 -0.00651568
106 -1.16134e-12 1.89182e-12 -5.31227e-12 -0.000483644 -0.000809339 -0.00365897
107 1.6254e-12 8.73972e-13 -4.92509e-12 0.000264364 4.2963e-05 -0.00624698
108 -2.28596e-12 9.2602e-14 -4.48633e-12 -0.00324631 0.001483 0.00187273
109 4.51524e-13 -7.20758e-13 -5.2132e-12 0.00190805 -0.00457786 -0.00506186
110 -7.35148e-13 -1.96286e-12 -5.07702e-12 -0.0025749 -0.00393927 -0.017219
111 6.30447e-13 -1.56685e-12 -5.54372e-12 0.00257831 -0.00247067 0.0106888
112 -1.26399e-12 -1.15122e-12 -4.59379e-12 -0.00372326 -0.0032482 -0.00354721
127 2.58898e-13 9.35773e-13 1.79337e-12 0.000584787 0.0029709 -0.0108874
116 -1.46533e-13 1.69771e-13 4.56455e-13 -0.00237534 0.000234443 -0.00959967
113 -4.0196e-13 -6.04463e-13 3.19512e-12 -0.00170102 0.00220918 -0.00635836
114 -2.80442e-13 -4.72103e-13 2.89846e-12 0.0020743 0.00155279 -0.00919252
115 6.58621e-13 5.84212e-14 7.61046e-13 0.000751579 -6.62327e-05 -0.0145125
120 2.20314e-13 -7.28134e-14 1.08144e-12 -0.00107532 0.000479829 -0.00709159
117 -4.52772e-13 4.64445e-13 7.09799e-13 0.000692752 -2.46942e-05 -0.00223178
118 9.64056e-14 5.31766e-13 2.04256e-12 0.000776953 0.000904471 -0.00977216
119 2.77034e-13 9.25108e-14 -2.34867e-13 0.00106376 -0.00251403 -0.00824909
124 6.15336e-13 8.62035e-14 2.59198e-12 0.0015148 0.0001881 -0.0067099
121 -3.79222e-13 -1.09648e-13 3.90921e-13 0.00116583 -0.000156343 0.00239408
122 -1.09458e-13 -2.8709e-13 2.14922e-12 0.00155366 0.000272763 0.00580935
123 3.60637e-13 -2.16699e-13 1.67628e-12 0.00084849 0.0016669 -0.00291259
128 6.84019e-13 8.4157e-13 9.98779e-14 -0.00140329 0.00166187 -0.00585175
125 -2.6647e-13 1.11397e-12 1.40638e-12 -0.00160307 -0.000729239 0.00356317
126 -6.36324e-13 1.16164e-12 1.18372e-12 0.0069822 -0.00234995 0.0053918
ITEM: TIMESTEP
30000
ITEM: NUMBER OF ATOMS
128
ITEM: BOX BOUNDS pp pp pp
-2.0000000000000000e+01 1.3997309188270103e+02
-2.0000000000000000e+01 1.3997309188270103e+02
-2.0000000000000000e+01 2.0623611615527426e+02
ITEM: ATOMS id vx vy vz fx fy fz
1 -3.35684e-15 4.62268e-14 8.39329e-14 5.92053e-05 1.58608e-05 -0.00056802
2 -1.66981e-13 8.40499e-14 7.56759e-14 0.000279656 0.000487828 -0.00176359
3 2.26355e-13 5.01307e-14 -2.69901e-14 -0.000311574 -0.000101191 0.000315437
4 -6.58734e-14 2.69453e-14 1.38365e-13 7.41184e-06 -0.000309607 -0.000389957
5 -8.78577e-15 -1.07493e-13 4.16446e-14 4.25667e-05 0.000248802 -0.00203524
6 -3.78707e-14 1.3946e-14 1.69153e-13 -0.000140929 -0.000717205 -0.000947088
7 1.28161e-13 7.98211e-14 1.27345e-13 -0.000353238 1.41501e-05 -0.000782812
8 -1.52222e-13 -4.77263e-14 3.19626e-13 0.000286728 -3.2407e-05 -9.57459e-05
9 -9.09011e-14 -5.73143e-14 -1.89866e-13 -0.000263393 0.000185823 -0.000842011
10 -4.9589e-14 -1.55126e-13 6.34245e-14 0.00022358 -0.00014345 -0.000370127
11 1.09079e-13 -2.12341e-13 -2.87132e-14 2.67625e-05 9.58532e-05 -0.000338626
12 -2.42136e-13 -1.30958e-13 1.20442e-13 -6.96242e-05 0.000202847 -0.000811529
13 1.50229e-16 2.72529e-13 2.83746e-14 -0.000128156 -0.000279477 -0.000257751
14 -2.27313e-13 6.38343e-14 1.54857e-13 2.68221e-06 0.000132561 -0.000247228
15 1.42495e-13 1.41912e-13 -2.21934e-14 0.000235873 -3.27229e-05 -0.000927037
16 -1.93495e-14 1.18333e-13 1.41452e-13 -0.000127572 0.000287044 -0.000600109
17 2.03902e-14 -5.46295e-14 -7.83463e-14 -0.000528136 -9.04024e-05 -6.11603e-05
18 -7.94248e-14 5.63e-14 7.77945e-14 0.00052295 0.000162125 -0.000168782
19 4.10166e-14 4.05293e-14 -5.87766e-15 -0.00012306 -0.000348178 -0.000242257
20 -2.54655e-14 6.47307e-14 -2.37968e-14 -0.000225842 -4.28975e-05 -0.000164229
21 6.79556e-14 -4.60421e-14 5.4667e-14 0.000270665 1.27137e-05 -9.92686e-05
22 2.87783e-14 2.17481e-14 7.51999e-14 -9.55313e-05 -0.000291163 -1.97858e-05
23 -3.72508e-14 -3.59967e-14 2.01905e-14 0.000163615 -0.000380915 6.59227e-06
24 -1.85388e-13 -1.23574e-13 1.89519e-13 -0.000471616 -0.00041582 -9.27597e-05
25 2.68718e-14 3.6702e-14 2.01138e-13 -6.71715e-05 0.000194776 -0.000130087
26 -2.15937e-14 -7.59237e-14 2.26093e-13 -0.000255746 0.000124741 0.00071677
27 5.63727e-14 -3.00221e-14 8.86108e-14 0.000284457 0.000395259 0.000273108
28 -1.4186e-13 4.83778e-14 1.58822e-13 -0.000237298 0.000292009 -2.9549e-05
29 -2.44295e-14 1.05362e-13 -6.00478e-15 -0.000198877 4.16756e-05 0.000395259
30 -2.65686e-14 -1.83565e-14 2.45251e-13 0.0002911 0.000129005 0.00037778
31 -1.50939e-14 -1.58535e-14 -1.11022e-15 0.000184661 0.000471058 -0.000755346
32 5.90299e-14 5.58636e-14 -1.04885e-13 -4.22448e-05 0.000455433 0.000313649
33 4.1873e-16 -3.45194e-14 -3.30744e-13 -0.0001358 0.000259602 0.000738153
34 -3.64601e-14 4.13416e-14 -1.72059e-13 -4.14312e-05 -0.000204375 0.000882787
35 -5.87434e-14 7.06035e-14 -2.6791e-13 0.000323296 -0.000348088 0.00075286
36 7.26795e-14 2.23355e-14 -3.23682e-13 -0.000141272 1.01328e-07 1.86771e-05
37 -2.09938e-15 -2.74174e-14 -2.33345e-13 9.40472e-05 -2.23517e-05 0.0021292
38 5.28234e-14 -7.11276e-14 -1.65453e-14 -0.000202212 -5.65946e-05 0.000775695
39 -9.02714e-14 -4.49898e-14 -2.24327e-13 0.000180039 -2.85983e-05 0.000641593
40 -1.334e-14 -7.69977e-14 -1.00774e-13 -0.000371242 -0.000217026 0.000562128
41 -3.13575e-16 1.13355e-14 -2.21659e-13 2.19584e-05 0.000208855 0.00104562
42 1.09384e-13 5.91301e-14 -2.72864e-13 -0.000262973 0.000136518 0.00057317
43 -1.29081e-13 -8.42206e-15 -1.79106e-13 -2.28107e-05 -0.000199747 0.000636971
44 -1.42465e-14 2.41812e-14 -1.32821e-13 0.000334632 5.87404e-05 0.00204984
45 -6.93096e-15 9.03283e-14 -2.80342e-13 0.000155783 0.000245774 0.000359899
46 7.16907e-14 -5.91681e-14 -1.20019e-13 -3.66658e-05 -4.67896e-06 0.000290814
47 -1.10219e-13 -1.409e-13 -4.5606e-14 -0.000206017 -9.64403e-05 0.000736186
48 3.93019e-14 2.55784e-15 -6.2622e-14 5.75781e-06 9.60827e-06 -0.000161469
63 -3.15737e-14 4.17269e-14 -5.67795e-14 -0.000387681 -0.000940651 -0.000200117
49 -4.74886e-14 -1.89084e-14 -1.95381e-13 0.000540116 -1.57297e-05 -0.00049451
50 -1.24914e-15 -2.04976e-14 -1.64952e-13 -0.000490236 -0.000182915 -0.000413567
51 6.40961e-14 -2.37747e-14 -1.87432e-13 -0.000254953 4.50164e-05 -0.000465316
52 3.18128e-14 -5.14397e-14 -2.93199e-13 -1.98305e-05 0.000199592 -0.000641745
53 5.63838e-14 -8.24739e-14 -2.16749e-13 0.000139815 -2.10822e-05 -0.000375867
54 9.85977e-14 2.35068e-14 -2.37744e-13 -0.000102371 8.87036e-05 0.000159466
55 -3.71472e-15 1.80849e-14 -1.67083e-13 -5.8943e-05 0.000363415 -0.0006836
56 -8.0217e-14 -1.04778e-13 -1.77629e-13 1.46717e-05 0.000276294 -9.14931e-06
57 1.82675e-15 9.2803e-14 -7.01295e-14 7.34627e-05 -2.59817e-05 3.84629e-05
58 8.21734e-14 3.60729e-14 -9.38992e-14 0.000314069 -6.37025e-05 -0.000202245
59 -4.35308e-14 -1.46805e-14 -5.12602e-14 -0.000243586 8.31038e-05 0.00012956
60 -5.99306e-14 2.41508e-14 -1.97786e-13 0.000178519 -0.000288731 -0.000542325
61 -6.63061e-14 3.9799e-14 -1.53146e-13 0.00056954 7.65085e-05 -0.000410903
62 3.35919e-14 -1.68839e-14 6.23225e-14 5.8341e-05 -0.000235766 -0.000292182
64 2.31959e-14 1.04659e-14 -3.10814e-13 0.000112677 -0.000152788 0.000408572
65 3.27784e-14 -8.3657e-15 1.34716e-13 -0.000307551 -3.25084e-05 -0.00113115
66 9.30337e-14 -4.16822e-14 2.20715e-13 -0.000214049 0.000104356 -0.00227053
67 -5.52187e-15 -1.74003e-14 2.37801e-13 0.000126734 0.000475028 -0.00113818
68 -1.12693e-13 2.2829e-16 1.71265e-13 0.00031381 -9.23038e-05 -0.00167567
69 -1.7361e-15 5.28213e-15 4.38688e-13 9.31621e-06 -0.000424522 -0.000603452
70 5.91377e-14 -2.07034e-15 2.13303e-13 -2.94149e-06 0.000270027 -0.00157686
71 7.94592e-14 7.32596e-15 2.74697e-13 9.1207e-05 -0.000101835 -0.00119162
72 -5.25429e-14 4.20482e-14 2.60181e-13 0.000153315 1.45197e-05 -0.00174446
73 -3.72311e-14 2.04175e-14 3.2211e-13 -8.24928e-06 5.38409e-05 -0.00181218
74 5.93245e-15 5.01941e-14 3.15282e-13 0.000317729 0.000131738 -0.000343385
75 2.15822e-14 9.04489e-14 4.90971e-14 3.23236e-05 1.4168e-05 -0.00137161
76 -8.91826e-14 -1.30584e-14 2.99029e-13 -0.00019145 0.0003387 -0.00160318
77 1.63006e-14 -1.51622e-13 2.62077e-13 1.58966e-05 3.47346e-05 -0.000782678
78 6.68243e-14 5.614e-14 1.41565e-13 -0.00023953 -0.000194576 -0.00114926
79 -1.08979e-14 6.83202e-14 5.71045e-14 -3.2413e-05 0.000115156 -0.00221305
80 -1.75382e-13 -2.97007e-14 2.71171e-13 -3.56615e-05 -1.17004e-05 -0.00200656
96 -4.90571e-15 -3.52938e-14 1.49114e-13 -0.000146228 -0.000162554 0.000840473
93 -7.25033e-14 -1.23002e-13 2.30686e-13 0.000114611 -4.36902e-05 0.00118187
95 4.29388e-14 8.35721e-14 1.24059e-13 0.000317287 -0.000161755 0.00113243
81 -1.33844e-13 1.37021e-13 1.24561e-13 0.00059115 6.79433e-05 0.00125884
82 1.65169e-13 -2.434e-14 2.18044e-14 -0.000194612 0.00065985 0.000884527
83 -1.38239e-13 -9.19141e-14 -1.25306e-13 0.000287971 0.000595987 0.00161321
84 9.65659e-14 7.51844e-14 5.10629e-14 -0.000527072 6.61612e-05 0.000819671
88 -2.90565e-14 9.0244e-15 1.51897e-14 0.000203535 4.40478e-05 0.0012197
85 1.013e-15 -7.99447e-14 1.5109e-13 -0.000194451 0.00016062 0.000694948
86 -8.25417e-14 -3.84698e-14 9.56895e-14 0.000155622 0.000209194 0.000450051
87 1.51127e-13 4.49275e-14 8.57309e-15 -8.16643e-05 -0.000337753 0.00142753
89 4.33487e-14 1.13984e-13 1.28246e-13 -0.000695747 -0.000442323 0.000645238
90 -1.70592e-13 -2.57291e-15 1.21846e-13 -1.17481e-05 -0.000107294 0.00119473
91 1.48914e-13 -5.41989e-14 8.64311e-14 -0.000249678 0.000175631 0.00115514
92 -1.2915e-13 3.63679e-14 8.40454e-14 0.000925863 -0.000214729 0.000571477
94 6.98159e-15 3.14973e-14 8.98541e-14 -0.000256062 -0.00146762 0.0013211
97 -3.48494e-14 -3.24528e-15 1.67458e-13 -2.82168e-05 -3.36826e-05 0.000136852
98 -6.42372e-15 3.2991e-14 3.91222e-13 -0.000212622 2.22206e-05 5.31197e-05
99 -1.38989e-13 -2.26048e-14 2.23699e-14 8.57592e-05 -0.000167447 0.000319296
100 9.29925e-14 1.94493e-14 2.33841e-13 5.18978e-05 -2.13683e-06 0.00058443
101 9.42879e-16 -4.84132e-14 5.13469e-15 0.000228462 -9.16958e-05 -4.47392e-05
102 -7.97808e-15 -4.12162e-14 1.01973e-13 -0.000109273 9.42439e-05 0.000234973
103 -4.97394e-14 3.53905e-15 1.7441e-13 0.000157383 0.000183475 0.000422996
104 3.25291e-14 2.99959e-15 2.77762e-13 -5.57899e-05 7.2819e-05 0.000470966