ITEM: TIMESTEP
0
ITEM: NUMBER OF ATOMS
128
ITEM: BOX BOUNDS pp pp pp
-2.0000000000000000e+01 1.4000000000000000e+02
-2.0000000000000000e+01 1.4000000000000000e+02
-2.0000000000000000e+01 2.0627416997969522e+02
ITEM: ATOMS id c_1_stress[1] c_1_stress[2] c_1_stress[3] c_1_stress[4] c_1_stress[5] c_1_stress[6]
1 -0 -0 -0 -0 -0 -0
2 -0 -0 -0 -0 -0 -0
3 -0 -0 -0 -0 -0 -0
4 -0 -0 -0 -0 -0 -0
5 -0 -0 -0 -0 -0 -0
6 -0 -0 -0 -0 -0 -0
7 -0 -0 -0 -0 -0 -0
8 -0 -0 -0 -0 -0 -0
9 -0 -0 -0 -0 -0 -0
10 -0 -0 -0 -0 -0 -0
11 -0 -0 -0 -0 -0 -0
12 -0 -0 -0 -0 -0 -0
13 -0 -0 -0 -0 -0 -0
14 -0 -0 -0 -0 -0 -0
15 -0 -0 -0 -0 -0 -0
16 -0 -0 -0 -0 -0 -0
32 -0 -0 -0 -0 -0 -0
29 -0 -0 -0 -0 -0 -0
30 -0 -0 -0 -0 -0 -0
31 -0 -0 -0 -0 -0 -0
20 -0 -0 -0 -0 -0 -0
17 -0 -0 -0 -0 -0 -0
18 -0 -0 -0 -0 -0 -0
19 -0 -0 -0 -0 -0 -0
24 -0 -0 -0 -0 -0 -0
21 -0 -0 -0 -0 -0 -0
22 -0 -0 -0 -0 -0 -0
23 -0 -0 -0 -0 -0 -0
28 -0 -0 -0 -0 -0 -0
25 -0 -0 -0 -0 -0 -0
26 -0 -0 -0 -0 -0 -0
27 -0 -0 -0 -0 -0 -0
33 -0 -0 -0 -0 -0 -0
34 -0 -0 -0 -0 -0 -0
35 -0 -0 -0 -0 -0 -0
36 -0 -0 -0 -0 -0 -0
37 -0 -0 -0 -0 -0 -0
38 -0 -0 -0 -0 -0 -0
39 -0 -0 -0 -0 -0 -0
40 -0 -0 -0 -0 -0 -0
41 -0 -0 -0 -0 -0 -0
42 -0 -0 -0 -0 -0 -0
43 -0 -0 -0 -0 -0 -0
44 -0 -0 -0 -0 -0 -0
45 -0 -0 -0 -0 -0 -0
46 -0 -0 -0 -0 -0 -0
47 -0 -0 -0 -0 -0 -0
48 -0 -0 -0 -0 -0 -0
64 -0 -0 -0 -0 -0 -0
61 -0 -0 -0 -0 -0 -0
62 -0 -0 -0 -0 -0 -0
63 -0 -0 -0 -0 -0 -0
52 -0 -0 -0 -0 -0 -0
49 -0 -0 -0 -0 -0 -0
50 -0 -0 -0 -0 -0 -0
51 -0 -0 -0 -0 -0 -0
56 -0 -0 -0 -0 -0 -0
53 -0 -0 -0 -0 -0 -0
54 -0 -0 -0 -0 -0 -0
55 -0 -0 -0 -0 -0 -0
60 -0 -0 -0 -0 -0 -0
57 -0 -0 -0 -0 -0 -0
58 -0 -0 -0 -0 -0 -0
59 -0 -0 -0 -0 -0 -0
65 -0 -0 -0 -0 -0 -0
66 -0 -0 -0 -0 -0 -0
67 -0 -0 -0 -0 -0 -0
68 -0 -0 -0 -0 -0 -0
69 -0 -0 -0 -0 -0 -0
70 -0 -0 -0 -0 -0 -0
71 -0 -0 -0 -0 -0 -0
72 -0 -0 -0 -0 -0 -0
73 -0 -0 -0 -0 -0 -0
74 -0 -0 -0 -0 -0 -0
75 -0 -0 -0 -0 -0 -0
76 -0 -0 -0 -0 -0 -0
77 -0 -0 -0 -0 -0 -0
78 -0 -0 -0 -0 -0 -0
79 -0 -0 -0 -0 -0 -0
80 -0 -0 -0 -0 -0 -0
96 -0 -0 -0 -0 -0 -0
93 -0 -0 -0 -0 -0 -0
94 -0 -0 -0 -0 -0 -0
95 -0 -0 -0 -0 -0 -0
84 -0 -0 -0 -0 -0 -0
81 -0 -0 -0 -0 -0 -0
82 -0 -0 -0 -0 -0 -0
83 -0 -0 -0 -0 -0 -0
88 -0 -0 -0 -0 -0 -0
85 -0 -0 -0 -0 -0 -0
86 -0 -0 -0 -0 -0 -0
87 -0 -0 -0 -0 -0 -0
92 -0 -0 -0 -0 -0 -0
89 -0 -0 -0 -0 -0 -0
90 -0 -0 -0 -0 -0 -0
91 -0 -0 -0 -0 -0 -0
97 -0 -0 -0 -0 -0 -0
98 -0 -0 -0 -0 -0 -0
99 -0 -0 -0 -0 -0 -0
100 -0 -0 -0 -0 -0 -0
101 -0 -0 -0 -0 -0 -0
102 -0 -0 -0 -0 -0 -0
103 -0 -0 -0 -0 -0 -0
104 -0 -0 -0 -0 -0 -0
105 -0 -0 -0 -0 -0 -0
106 -0 -0 -0 -0 -0 -0
107 -0 -0 -0 -0 -0 -0
108 -0 -0 -0 -0 -0 -0
109 -0 -0 -0 -0 -0 -0
110 -0 -0 -0 -0 -0 -0
111 -0 -0 -0 -0 -0 -0
112 -0 -0 -0 -0 -0 -0
128 -0 -0 -0 -0 -0 -0
125 -0 -0 -0 -0 -0 -0
126 -0 -0 -0 -0 -0 -0
127 -0 -0 -0 -0 -0 -0
116 -0 -0 -0 -0 -0 -0
113 -0 -0 -0 -0 -0 -0
114 -0 -0 -0 -0 -0 -0
115 -0 -0 -0 -0 -0 -0
120 -0 -0 -0 -0 -0 -0
117 -0 -0 -0 -0 -0 -0
118 -0 -0 -0 -0 -0 -0
119 -0 -0 -0 -0 -0 -0
124 -0 -0 -0 -0 -0 -0
121 -0 -0 -0 -0 -0 -0
122 -0 -0 -0 -0 -0 -0
123 -0 -0 -0 -0 -0 -0
ITEM: TIMESTEP
10000
ITEM: NUMBER OF ATOMS
128
ITEM: BOX BOUNDS pp pp pp
-2.0000000000000000e+01 1.3997310555208477e+02
-2.0000000000000000e+01 1.3997310555208477e+02
-2.0000000000000000e+01 2.0623613548672003e+02
ITEM: ATOMS id c_1_stress[1] c_1_stress[2] c_1_stress[3] c_1_stress[4] c_1_stress[5] c_1_stress[6]
1 202315 202315 202315 1.17711e-06 -5.21323e-06 -5.06993e-06
2 202315 202315 202315 2.77656e-06 5.40642e-06 -5.69499e-06
3 202315 202315 202315 2.33773e-07 1.1717e-05 -5.49899e-06
4 202315 202315 202315 -4.07998e-06 -1.15316e-05 -2.48071e-06
5 202315 202315 202315 1.03386e-05 -1.06894e-05 7.96117e-06
6 202315 202315 202315 -3.48459e-06 4.30578e-06 4.51841e-06
7 202315 202315 202315 9.81929e-06 7.44602e-06 2.34999e-07
8 202315 202315 202315 -1.63905e-05 -7.82857e-07 5.79027e-06
9 202315 202315 202315 -1.00739e-05 -8.59797e-06 -4.45879e-06
10 202315 202315 202315 3.3046e-06 7.88553e-06 5.51691e-06
11 202315 202315 202315 -1.33507e-06 -1.75295e-06 3.16529e-06
12 202315 202315 202315 8.67412e-06 2.35921e-06 -7.40185e-06
13 202315 202315 202315 -1.72102e-06 -1.62712e-06 6.09769e-07
14 202315 202315 202315 -2.29112e-06 7.19036e-06 -5.55391e-06
15 202315 202315 202315 -9.35884e-06 1.43208e-06 1.56321e-06
16 202315 202315 202315 1.24472e-05 -7.11417e-06 3.88169e-06
17 202315 202315 202315 -8.68122e-07 8.2955e-07 1.36594e-06
18 202315 202315 202315 -2.45612e-06 -2.96424e-06 6.82052e-07
19 202315 202315 202315 -3.11925e-06 5.48971e-07 -4.56924e-06
20 202315 202315 202315 6.24021e-06 1.13192e-06 4.51619e-07
21 202315 202315 202315 -4.07844e-06 -2.57497e-06 3.02749e-07
22 202315 202315 202315 8.55953e-07 -2.33693e-06 -5.45213e-06
23 202315 202315 202315 2.16982e-07 -2.04393e-06 -2.03771e-06
24 202315 202315 202315 3.36814e-06 6.98302e-06 2.47401e-06
25 202315 202315 202315 4.78143e-06 -7.93553e-06 -2.87153e-06
26 202315 202315 202315 -1.26517e-06 -2.92819e-06 -1.41479e-06
27 202315 202315 202315 -1.03774e-06 4.07314e-06 2.24262e-06
28 202315 202315 202315 -2.40372e-06 6.86295e-06 -4.16569e-06
32 202315 202315 202315 -7.04241e-06 -1.89068e-06 1.91908e-06
29 202315 202315 202315 1.56009e-06 2.82982e-06 1.79801e-06
30 202315 202315 202315 2.29339e-06 -5.60245e-07 6.42844e-06
31 202315 202315 202315 2.98109e-06 -4.29674e-07 4.87175e-06
33 202315 202315 202315 -1.83805e-06 1.66246e-06 -2.16176e-06
34 202315 202315 202315 -5.13794e-06 -6.05463e-06 -5.82677e-06
35 202315 202315 202315 6.18767e-06 1.14848e-06 -2.72932e-06
36 202315 202315 202315 6.09645e-07 3.35723e-06 6.20264e-07
37 202315 202315 202315 -1.26029e-06 -3.00453e-06 -1.06643e-05
38 202315 202315 202315 7.47996e-06 -2.79463e-06 1.48183e-06
39 202315 202315 202315 -7.05093e-06 8.45054e-06 7.02119e-07
40 202315 202315 202315 1.98434e-06 -2.66545e-06 2.69175e-06
41 202315 202315 202315 2.47235e-06 -9.59029e-07 2.01913e-06
42 202315 202315 202315 -6.30709e-06 6.64937e-06 6.5437e-06
43 202315 202315 202315 4.3986e-06 2.38092e-06 4.03011e-06
44 202315 202315 202315 -2.98061e-07 -7.09701e-06 1.25676e-06
45 202315 202315 202315 -1.41148e-07 -2.97045e-07 1.06812e-05
46 202315 202315 202315 3.68485e-06 1.41832e-06 -1.74312e-06
47 202315 202315 202315 -3.60262e-06 -6.88276e-07 -2.39517e-06
48 202315 202315 202315 -1.12753e-06 2.94247e-07 -5.42634e-06
63 202315 202315 202315 -1.18188e-06 5.36767e-06 5.61568e-06
52 202315 202315 202315 -6.5283e-07 -7.02737e-06 -4.35127e-06
49 202315 202315 202315 -1.5369e-06 1.04059e-05 1.27869e-06
50 202315 202315 202315 9.5683e-07 -2.95766e-06 -5.16839e-06
51 202315 202315 202315 6.43551e-07 -7.75504e-07 -1.07366e-05
53 202315 202315 202315 -1.81959e-06 -7.31626e-06 8.7188e-06
54 202315 202315 202315 -5.91999e-06 -5.60111e-06 -4.79018e-06
55 202315 202315 202315 -4.23821e-06 -8.24861e-07 -3.68754e-06
56 202315 202315 202315 9.84893e-06 1.37315e-05 5.92095e-06
57 202315 202315 202315 -7.98986e-06 -1.31102e-05 -1.7165e-05
58 202315 202315 202315 1.50041e-05 2.88274e-06 -5.00859e-06
59 202315 202315 202315 5.13215e-06 -2.82329e-07 8.72317e-06
60 202315 202315 202315 -1.18234e-05 1.02794e-05 -3.14702e-06
64 202315 202315 202315 9.90423e-07 -1.12374e-05 1.38417e-06
61 202315 202315 202315 1.16114e-05 -2.07403e-06 7.52147e-06
62 202315 202315 202315 -8.9587e-06 7.65612e-06 1.51824e-05
65 202315 202315 202315 6.57069e-06 1.42796e-06 -3.3445e-07
66 202315 202315 202315 -4.35615e-07 -9.82352e-06 -1.2876e-05
67 202315 202315 202315 -1.04919e-05 -1.1032e-06 -4.26308e-06
68 202315 202315 202315 4.39075e-06 9.48162e-06 -8.45248e-08
69 202315 202315 202315 2.87383e-06 -3.98159e-07 -8.54707e-06
70 202315 202315 202315 3.74646e-07 -3.87173e-06 1.02981e-05
71 202315 202315 202315 7.07076e-06 3.79069e-06 2.07185e-05
72 202315 202315 202315 -9.88848e-06 -1.47029e-07 2.0962e-05
73 202315 202315 202315 -9.44285e-06 -1.17693e-05 3.71512e-06
74 202315 202315 202315 2.36418e-06 1.54414e-05 1.01051e-05
75 202315 202315 202315 3.42884e-06 1.29357e-05 2.35108e-07
76 202315 202315 202315 3.99211e-06 -1.7977e-05 3.356e-06
77 202315 202315 202315 -1.3628e-06 6.48038e-06 4.62372e-06
78 202315 202315 202315 -2.14353e-06 1.65623e-06 -8.49551e-06
79 202315 202315 202315 1.28261e-07 -8.69912e-06 -1.56889e-05
80 202315 202315 202315 2.47296e-06 -1.86992e-09 -2.29336e-05
96 202315 202315 202315 6.7263e-07 -8.24897e-06 8.45658e-06
93 202315 202315 202315 -1.50751e-05 2.9298e-06 6.14706e-06
94 202315 202315 202315 9.60703e-06 6.52222e-06 1.58368e-05
95 202315 202315 202315 3.19952e-06 -6.757e-07 1.89564e-05
81 202315 202315 202315 2.72944e-06 6.67298e-06 2.71075e-06
82 202315 202315 202315 -7.03463e-06 4.98817e-06 -6.1569e-06
83 202315 202315 202315 -5.79978e-06 -2.38436e-06 -1.48328e-05
84 202315 202315 202315 1.02172e-05 -8.5728e-06 3.62775e-06
88 202315 202315 202315 -2.49369e-05 1.62108e-05 -4.01983e-06
85 202315 202315 202315 7.74409e-06 -1.25533e-05 -5.42765e-07
86 202315 202315 202315 1.23358e-05 -5.46499e-06 -9.48286e-06
87 202315 202315 202315 6.2968e-06 1.23407e-06 -1.3452e-05
92 202315 202315 202315 1.52954e-05 1.24771e-05 -8.38814e-06
89 202315 202315 202315 4.92452e-06 -8.83716e-06 -8.75091e-06
90 202315 202315 202315 -1.63935e-05 5.51492e-07 -2.56437e-07
91 202315 202315 202315 -3.79191e-06 -4.5078e-06 9.45965e-06
97 202315 202315 202315 -7.38014e-06 4.39948e-06 -8.92166e-06
98 202315 202315 202315 2.31745e-06 3.82169e-06 -8.82808e-06
99 202315 202315 202315 4.39616e-06 -1.06785e-06 -7.51957e-06
100 202315 202315 202315 1.13962e-06 -7.80476e-06 -2.298e-06
101 202315 202315 202315 -1.27725e-05 -1.65583e-05 -4.74418e-07
102 202315 202315 202315 -3.55734e-06 1.56694e-05 1.71072e-06
103 202315 202315 202315 -9.71593e-06 1.18932e-05 -9.13562e-07
104 202315 202315 202315 2.47204e-05 -1.07366e-05 8.78105e-06
105 202315 202315 202315 1.73842e-05 -6.78733e-06 5.97914e-06
106 202315 202315 202315 1.80639e-06 9.3748e-06 5.34379e-06
107 202315 202315 202315 -6.58795e-06 -2.26023e-06 1.23324e-06
108 202315 202315 202315 -1.19538e-05 -1.09576e-07 -8.04538e-06
109 202315 202315 202315 2.0857e-06 -4.14543e-06 5.04449e-06
110 202315 202315 202315 -1.78352e-07 8.3111e-06 3.4341e-06
111 202315 202315 202315 1.15353e-05 3.14362e-06 7.59598e-06
112 202315 202315 202315 -1.33268e-05 -7.42177e-06 1.35386e-06
127 202315 202315 202315 -4.70921e-06 6.73036e-06 -5.71814e-06
116 202315 202315 202315 -1.71839e-05 2.26752e-05 -1.08142e-05
113 202315 202315 202315 -4.11206e-07 -3.95667e-06 1.25758e-05
114 202315 202315 202315 8.13102e-06 -1.87758e-05 6.14452e-06
115 202315 202315 202315 9.38257e-06 -3.92283e-08 7.00457e-06
120 202315 202315 202315 1.03669e-05 1.73935e-05 -3.78271e-06
117 202315 202315 202315 -3.20349e-07 5.09061e-06 -1.09525e-05
118 202315 202315 202315 -7.53097e-06 -9.50156e-06 -1.03672e-05
119 202315 202315 202315 -3.19024e-06 -1.24819e-05 1.14579e-05
124 202315 202315 202315 -2.25229e-07 6.90649e-06 9.62659e-06
121 202315 202315 202315 -1.58095e-06 -8.36828e-06 -5.00698e-06
122 202315 202315 202315 2.99762e-06 -2.85391e-06 -3.19398e-06
123 202315 202315 202315 -7.52074e-07 4.7349e-06 -1.31848e-05
128 202315 202315 202315 6.27561e-06 1.4462e-05 4.54517e-06
125 202315 202315 202315 1.69785e-06 -6.31751e-06 2.7027e-06
126 202315 202315 202315 -2.87302e-06 -1.54802e-05 7.00815e-06
ITEM: TIMESTEP
20000
ITEM: NUMBER OF ATOMS
128
ITEM: BOX BOUNDS pp pp pp
-2.0000000000000000e+01 1.3997309188524576e+02
-2.0000000000000000e+01 1.3997309188524576e+02
-2.0000000000000000e+01 2.0623611615888987e+02
ITEM: ATOMS id c_1_stress[1] c_1_stress[2] c_1_stress[3] c_1_stress[4] c_1_stress[5] c_1_stress[6]
1 202469 202469 202469 -3.18697e-06 -2.71343e-06 -1.12213e-05
2 202469 202469 202469 -5.62462e-06 -6.54753e-07 1.12828e-06
3 202469 202469 202469 7.07504e-06 1.45789e-05 3.48235e-07
4 202469 202469 202469 1.81141e-06 -1.09014e-05 -4.15673e-06
5 202469 202469 202469 1.21769e-05 -6.96711e-06 1.10447e-05
6 202469 202469 202469 -4.78674e-06 4.21694e-06 6.11682e-07
7 202469 202469 202469 1.06791e-05 8.12805e-06 -7.31328e-07
8 202469 202469 202469 -1.68699e-05 -3.81467e-06 8.26106e-06
9 202469 202469 202469 -1.02539e-05 -9.55409e-06 -4.85335e-06
10 202469 202469 202469 5.34437e-06 4.9905e-06 3.38889e-06
11 202469 202469 202469 -6.1448e-06 2.99143e-06 1.70398e-06
12 202469 202469 202469 1.11078e-05 1.51152e-06 -9.77936e-06
13 202469 202469 202469 3.36373e-07 -3.94331e-06 5.08122e-06
14 202469 202469 202469 5.93824e-06 9.34131e-07 -5.62138e-06
15 202469 202469 202469 -1.21674e-05 9.16322e-06 -5.97287e-07
16 202469 202469 202469 4.73239e-06 -7.40775e-06 6.47356e-06
17 202469 202469 202469 -5.41912e-06 8.00392e-07 5.01699e-06
18 202469 202469 202469 -2.95249e-06 -1.12174e-05 3.33664e-06
19 202469 202469 202469 -9.28469e-07 7.21462e-06 -2.16311e-06
20 202469 202469 202469 8.22133e-06 3.32998e-06 5.28006e-06
21 202469 202469 202469 -4.45105e-06 -1.52228e-06 -2.13821e-06
22 202469 202469 202469 3.35957e-06 -8.31852e-06 -5.07295e-06
23 202469 202469 202469 -7.44443e-07 3.19233e-08 8.46416e-07
24 202469 202469 202469 1.5925e-06 9.78005e-06 -1.08185e-06
25 202469 202469 202469 6.3841e-06 -7.44361e-06 -2.90105e-06
26 202469 202469 202469 6.40521e-07 -3.22654e-06 -1.89699e-06
27 202469 202469 202469 -7.43419e-06 2.85326e-06 1.07874e-06
28 202469 202469 202469 1.30368e-06 8.76667e-06 -6.80986e-06
32 202469 202469 202469 -9.29951e-06 1.63466e-06 2.48419e-06
29 202469 202469 202469 4.25305e-06 6.21695e-06 1.5226e-07
30 202469 202469 202469 -2.95401e-06 -6.15092e-06 3.62442e-06
31 202469 202469 202469 8.57064e-06 -5.72858e-07 2.00933e-07
33 202469 202469 202469 -8.11135e-06 -9.83127e-06 -3.28315e-06
34 202469 202469 202469 -7.80225e-06 -2.50039e-06 -8.91743e-06
35 202469 202469 202469 2.9585e-06 7.72676e-06 -4.0857e-06
36 202469 202469 202469 1.29729e-05 3.97478e-06 -5.16694e-06
37 202469 202469 202469 9.95951e-06 -7.0368e-06 -1.68304e-05
38 202469 202469 202469 3.57201e-06 -2.80175e-07 3.24799e-06
39 202469 202469 202469 -8.10992e-06 1.15572e-05 -7.10363e-06
40 202469 202469 202469 -4.21008e-06 -4.2138e-06 -5.18828e-06
41 202469 202469 202469 -5.32819e-06 -1.51946e-06 4.07214e-06
42 202469 202469 202469 3.88808e-06 7.56241e-06 7.51151e-06
43 202469 202469 202469 7.88573e-06 2.62923e-06 8.0305e-06
44 202469 202469 202469 -6.17961e-06 -8.25239e-06 9.54125e-06
45 202469 202469 202469 1.96478e-06 -9.2782e-06 1.63792e-05
46 202469 202469 202469 4.05129e-07 3.88934e-06 -1.71912e-06
47 202469 202469 202469 -2.67647e-06 6.20808e-06 2.24784e-06
48 202469 202469 202469 -1.19845e-06 -9.70071e-07 3.19695e-07
63 202469 202469 202469 1.48006e-05 9.57863e-06 4.24108e-06
52 202469 202469 202469 -4.26865e-06 -1.35904e-05 8.2907e-06
49 202469 202469 202469 -4.82011e-06 1.46925e-05 9.92208e-07
50 202469 202469 202469 8.21704e-06 -1.18376e-05 3.38323e-06
51 202469 202469 202469 -1.10441e-06 1.13995e-05 8.12746e-06
53 202469 202469 202469 6.90973e-06 -1.20776e-05 1.4082e-05
54 202469 202469 202469 -9.38013e-06 3.54234e-07 6.73423e-07
55 202469 202469 202469 -2.01176e-05 6.48442e-06 -9.71081e-06
56 202469 202469 202469 2.19905e-05 5.62565e-06 5.16258e-06
57 202469 202469 202469 1.84459e-06 -1.02139e-05 -1.33057e-05
58 202469 202469 202469 1.28813e-05 -5.29694e-06 -4.53205e-06
59 202469 202469 202469 5.30371e-06 -6.67921e-06 -2.19039e-06
60 202469 202469 202469 -1.79705e-05 2.1485e-05 -1.31997e-05
64 202469 202469 202469 -1.98168e-06 -6.50868e-06 2.91962e-07
61 202469 202469 202469 -2.2893e-06 4.6597e-06 -7.48561e-07
62 202469 202469 202469 -9.91658e-06 -7.71747e-06 1.19039e-06
65 202469 202469 202469 1.17376e-05 -4.10257e-06 -3.96987e-06
66 202469 202469 202469 1.00401e-05 2.43219e-06 3.84494e-06
67 202469 202469 202469 -1.57023e-05 -4.1662e-06 7.30669e-06
68 202469 202469 202469 -5.24381e-06 7.40455e-06 -1.79817e-05
69 202469 202469 202469 -7.14466e-06 8.47647e-06 -2.40523e-05
70 202469 202469 202469 8.44109e-06 1.06468e-05 -9.40607e-07
71 202469 202469 202469 9.681e-06 -1.76064e-05 4.04219e-07
72 202469 202469 202469 -1.06272e-05 -1.75252e-06 1.4482e-05
73 202469 202469 202469 1.2709e-06 -2.12244e-05 1.42374e-05
74 202469 202469 202469 -1.83141e-05 1.9632e-05 -1.88789e-07
75 202469 202469 202469 2.94425e-06 1.77291e-05 -8.46723e-06
76 202469 202469 202469 1.3769e-05 -1.74154e-05 2.53134e-05
77 202469 202469 202469 -6.91026e-06 -1.26173e-05 1.22974e-05
78 202469 202469 202469 1.13112e-06 -6.50315e-06 -3.34852e-06
79 202469 202469 202469 2.76035e-06 1.04757e-05 1.85161e-06
80 202469 202469 202469 2.14894e-06 9.59991e-06 -2.13785e-05
96 202469 202469 202469 -7.61213e-07 -6.35751e-06 2.05129e-05
93 202469 202469 202469 -1.30232e-05 1.79225e-05 3.11929e-06
94 202469 202469 202469 2.23924e-05 4.56444e-06 -9.29894e-06
95 202469 202469 202469 -9.28406e-06 -1.68177e-05 2.05485e-05
81 202469 202469 202469 1.79547e-05 -3.21816e-07 1.58905e-05
82 202469 202469 202469 -2.84459e-05 4.51629e-06 -7.40195e-06
83 202469 202469 202469 -1.97109e-06 1.29279e-05 -9.75743e-06
84 202469 202469 202469 1.32968e-05 -1.73059e-05 1.53727e-05
88 202469 202469 202469 -3.49504e-05 2.26692e-05 -1.03885e-05
85 202469 202469 202469 7.31952e-06 -1.07097e-05 4.06649e-06
86 202469 202469 202469 3.17213e-06 -2.23098e-05 8.8911e-06
87 202469 202469 202469 2.46018e-05 1.01131e-05 -1.74669e-05
92 202469 202469 202469 2.50923e-05 1.39673e-05 -2.60016e-05
89 202469 202469 202469 -1.33064e-05 1.25905e-05 -2.35662e-05
90 202469 202469 202469 8.3528e-08 -2.85359e-06 7.56339e-06
91 202469 202469 202469 -1.22107e-05 -2.39175e-05 5.98294e-06
97 202469 202469 202469 -1.66194e-06 1.1994e-05 -1.24162e-05
98 202469 202469 202469 3.3398e-06 -3.86091e-06 1.99057e-06
99 202469 202469 202469 5.62974e-06 -6.35281e-06 9.47133e-06
100 202469 202469 202469 -8.12403e-06 -2.72886e-06 -1.63747e-05
101 202469 202469 202469 -1.43849e-05 -1.60158e-05 -7.91988e-08
102 202469 202469 202469 -5.98122e-06 2.34815e-05 -1.44557e-05
103 202469 202469 202469 -1.32574e-05 5.49751e-06 1.02513e-05
104 202469 202469 202469 3.37873e-05 -1.39818e-05 1.4825e-05
105 202469 202469 202469 1.33341e-05 -1.37191e-05 1.03223e-05
106 202469 202469 202469 1.06852e-05 1.45599e-05 4.76686e-06
107 202469 202469 202469 -4.72731e-06 3.62078e-06 -1.08129e-05
108 202469 202469 202469 -1.81885e-05 -3.35367e-06 1.15991e-06
109 202469 202469 202469 2.34428e-06 -1.40913e-05 3.55239e-06
110 202469 202469 202469 -7.09842e-06 -6.85952e-06 8.38574e-06
111 202469 202469 202469 1.12943e-05 1.61836e-05 -9.97855e-06
112 202469 202469 202469 -7.03701e-06 5.47371e-06 -7.17082e-08
127 202469 202469 202469 -1.36867e-05 -1.2442e-05 2.54581e-06
116 202469 202469 202469 -1.57487e-05 1.73135e-05 -1.93453e-05
113 202469 202469 202469 -7.0581e-06 -1.07476e-05 6.64051e-06
114 202469 202469 202469 1.84969e-05 -1.25646e-05 -1.35752e-05
115 202469 202469 202469 4.76469e-06 6.06565e-06 -8.66976e-06
120 202469 202469 202469 1.02442e-05 1.35596e-05 -6.92943e-06
117 202469 202469 202469 -7.10993e-06 1.17939e-05 -6.69458e-06
118 202469 202469 202469 4.74702e-08 -1.74048e-05 -4.33969e-06
119 202469 202469 202469 -4.58703e-06 -8.03532e-06 7.74683e-06
124 202469 202469 202469 -8.84558e-06 9.02748e-06 1.32278e-05
121 202469 202469 202469 4.94828e-06 -9.08374e-07 1.24139e-07
122 202469 202469 202469 -9.84844e-06 -9.3411e-06 1.68096e-05
123 202469 202469 202469 1.38131e-05 8.16864e-07 -1.16973e-06
128 202469 202469 202469 1.20474e-05 1.23821e-05 1.36156e-05
125 202469 202469 202469 8.92856e-06 4.3661e-06 -8.3767e-07
126 202469 202469 202469 -6.23398e-06 -4.3776e-06 7.74311e-07
ITEM: TIMESTEP
30000
ITEM: NUMBER OF ATOMS
128
ITEM: BOX BOUNDS pp pp pp
-2.0000000000000000e+01 1.3997309188270103e+02
-2.0000000000000000e+01 1.3997309188270103e+02
-2.0000000000000000e+01 2.0623611615527426e+02
ITEM: ATOMS id c_1_stress[1] c_1_stress[2] c_1_stress[3] c_1_stress[4] c_1_stress[5] c_1_stress[6]
1 202469 202469 202469 -2.19005e-05 4.75167e-07 -1.16424e-05
2 202469 202469 202469 1.51781e-06 -3.86746e-06 5.12023e-06
3 202469 202469 202469 1.19563e-05 1.47295e-05 -3.26363e-08
4 202469 202469 202469 8.23485e-06 -1.11145e-05 -1.38678e-05
5 202469 202469 202469 2.29469e-05 -4.41181e-06 1.18383e-05
6 202469 202469 202469 -1.04628e-05 3.0473e-06 1.25718e-06
7 202469 202469 202469 4.63156e-06 6.44234e-06 2.59402e-07
8 202469 202469 202469 -1.75328e-05 -4.70425e-06 1.3591e-05
9 202469 202469 202469 7.00526e-06 -1.80459e-05 -3.58178e-06
10 202469 202469 202469 5.58104e-06 3.86867e-06 -7.53645e-06
11 202469 202469 202469 -1.86952e-05 9.24561e-06 -1.49954e-06
12 202469 202469 202469 6.89468e-06 4.83457e-06 -2.31419e-06
13 202469 202469 202469 -8.79548e-06 -1.6603e-05 3.19292e-06
14 202469 202469 202469 3.97378e-06 -2.34482e-06 3.79037e-07
15 202469 202469 202469 8.66376e-07 2.22925e-05 1.63615e-06
16 202469 202469 202469 3.79897e-06 -3.72128e-06 3.31274e-06
17 202469 202469 202469 -4.61468e-06 5.11342e-06 5.02473e-06
18 202469 202469 202469 1.03855e-07 -8.81368e-06 1.35458e-06
19 202469 202469 202469 -1.73513e-06 4.99225e-06 1.91256e-07
20 202469 202469 202469 5.58318e-06 -1.09273e-06 8.46325e-07
21 202469 202469 202469 -1.85406e-06 2.87541e-06 7.18173e-08
22 202469 202469 202469 -1.75626e-06 -3.35523e-06 -1.97734e-06
23 202469 202469 202469 -4.1938e-06 -5.1901e-06 9.69125e-07
24 202469 202469 202469 8.07184e-06 5.31569e-06 4.13951e-07
25 202469 202469 202469 5.66217e-07 -5.32575e-06 -5.41412e-06
26 202469 202469 202469 8.26426e-06 2.67995e-06 1.53667e-06
27 202469 202469 202469 -5.37966e-06 -3.79264e-06 3.11495e-06
28 202469 202469 202469 -3.08264e-06 6.24868e-06 -1.50695e-06
29 202469 202469 202469 6.7629e-06 7.76471e-06 1.77391e-07
30 202469 202469 202469 -7.24774e-06 -4.09578e-07 -6.79665e-07
31 202469 202469 202469 1.06554e-05 -4.74317e-06 -4.22142e-06
32 202469 202469 202469 -1.0167e-05 -2.34692e-06 1.60875e-07
33 202469 202469 202469 -7.08408e-06 -5.3222e-06 5.27358e-06
34 202469 202469 202469 -6.23699e-06 -1.20018e-05 -2.7879e-06
35 202469 202469 202469 -2.41536e-06 5.2469e-06 5.25621e-06
36 202469 202469 202469 1.61145e-05 1.23032e-05 -1.16753e-06
37 202469 202469 202469 6.961e-06 -4.88699e-06 -1.70679e-05
38 202469 202469 202469 4.83276e-06 -9.14667e-06 -2.6486e-06
39 202469 202469 202469 5.82518e-06 6.98801e-06 -1.65069e-06
40 202469 202469 202469 -1.72914e-05 6.88455e-06 3.85578e-06
41 202469 202469 202469 -7.62707e-06 -9.83532e-06 -1.43012e-06
42 202469 202469 202469 7.75209e-06 2.1713e-06 7.73352e-06
43 202469 202469 202469 2.90956e-06 1.54203e-05 4.07864e-06
44 202469 202469 202469 -3.15082e-06 -8.06402e-06 8.02997e-06
45 202469 202469 202469 6.17971e-06 -3.86258e-06 1.28499e-05
46 202469 202469 202469 -6.54442e-06 -8.14802e-06 -2.23146e-06
47 202469 202469 202469 -6.36616e-06 8.75465e-06 -7.67592e-06
48 202469 202469 202469 6.04785e-06 3.26241e-06 -1.08914e-05
63 202469 202469 202469 1.33177e-05 1.00692e-05 8.37272e-06
49 202469 202469 202469 3.62601e-07 1.47846e-05 -2.13315e-06
50 202469 202469 202469 4.76334e-06 -8.16316e-06 -7.49977e-07
51 202469 202469 202469 -2.12147e-06 1.40384e-05 -2.57976e-06
52 202469 202469 202469 -3.45667e-06 -2.04663e-05 -1.49776e-07
53 202469 202469 202469 5.53788e-06 -3.8598e-06 2.12311e-05
54 202469 202469 202469 2.41167e-06 -1.17703e-05 6.94804e-06
55 202469 202469 202469 -3.03932e-05 -3.40228e-06 -2.20788e-05
56 202469 202469 202469 2.23913e-05 1.88257e-05 3.78932e-07
57 202469 202469 202469 5.23244e-06 -4.50901e-06 -1.51701e-05
58 202469 202469 202469 1.70727e-06 -1.27706e-05 -1.67289e-06
59 202469 202469 202469 1.88896e-05 -1.58463e-05 1.64744e-05
60 202469 202469 202469 -2.53667e-05 3.2779e-05 8.35487e-07
61 202469 202469 202469 -1.10273e-05 6.12178e-06 -4.08438e-06
62 202469 202469 202469 -8.80451e-06 -6.26113e-06 -4.64652e-06
64 202469 202469 202469 6.59393e-06 -1.01303e-05 -1.04878e-06
65 202469 202469 202469 2.08682e-05 -1.66768e-05 -1.2463e-05
66 202469 202469 202469 6.89394e-06 5.01288e-06 3.03069e-06
67 202469 202469 202469 -6.30756e-07 8.07646e-06 1.54205e-05
68 202469 202469 202469 -2.74078e-05 3.87925e-06 -1.6002e-05
69 202469 202469 202469 6.72947e-06 2.95722e-06 -2.37861e-05
70 202469 202469 202469 1.29801e-05 1.35715e-05 3.55942e-06
71 202469 202469 202469 -1.96019e-05 -4.14812e-06 -7.04494e-06
72 202469 202469 202469 3.2169e-07 -1.23943e-05 2.00651e-05
73 202469 202469 202469 -5.9559e-06 -3.57337e-05 1.51521e-05
74 202469 202469 202469 -8.34479e-06 2.76151e-05 3.36434e-06
75 202469 202469 202469 -1.25204e-06 2.92505e-05 -2.676e-06
76 202469 202469 202469 1.5628e-05 -2.15876e-05 2.57867e-05
77 202469 202469 202469 -2.19715e-05 -2.49172e-05 2.06964e-05
78 202469 202469 202469 -1.05556e-05 -8.14325e-08 -9.64133e-06
79 202469 202469 202469 1.99888e-05 1.0413e-05 -5.4346e-06
80 202469 202469 202469 1.22685e-05 1.46099e-05 -3.05152e-05
96 202469 202469 202469 -1.73943e-05 -9.67101e-06 2.26923e-05
93 202469 202469 202469 -1.03373e-06 4.51834e-05 5.18997e-06
95 202469 202469 202469 -5.76094e-06 -4.34843e-05 1.62115e-05
81 202469 202469 202469 8.67531e-06 1.67368e-05 1.97952e-05
82 202469 202469 202469 -2.68279e-05 -3.83953e-06 -1.17477e-05
83 202469 202469 202469 -2.98447e-06 -2.58919e-06 -5.67218e-06
84 202469 202469 202469 2.10308e-05 -1.07534e-05 3.69891e-05
88 202469 202469 202469 -4.04908e-05 1.83448e-05 -1.07157e-05
85 202469 202469 202469 1.12965e-05 -9.19446e-06 5.90021e-06
86 202469 202469 202469 -1.30469e-05 -1.86738e-05 -8.69008e-06
87 202469 202469 202469 4.30721e-05 9.24781e-06 -1.28623e-05
89 202469 202469 202469 -2.01282e-05 7.68226e-06 -3.01163e-05
90 202469 202469 202469 1.57262e-05 -3.71369e-06 6.74906e-06
91 202469 202469 202469 -3.33113e-05 -2.20037e-05 1.40006e-06
92 202469 202469 202469 3.75246e-05 1.84519e-05 -4.9197e-05
94 202469 202469 202469 2.36148e-05 8.37838e-06 1.35739e-05
97 202469 202469 202469 6.82691e-06 1.30632e-05 -2.19545e-05
98 202469 202469 202469 -1.05282e-06 -2.56078e-05 2.73738e-06
99 202469 202469 202469 -8.43374e-06 -6.45464e-06 7.72092e-06
100 202469 202469 202469 3.40079e-06 1.80696e-05 -3.09446e-05
101 202469 202469 202469 -3.71873e-05 -5.3525e-06 -4.48804e-06
102 202469 202469 202469 -7.07636e-06 1.01852e-05 -1.8345e-05
103 202469 202469 202469 8.91155e-06 4.40649e-06 2.37283e-05
104 202469 202469 202469 3.59e-05 -9.55688e-06 1.5132e-05
105 202469 202469 202469 6.51611e-06 -2.22769e-05 8.26014e-06
106 202469 202469 202469 -4.31571e-06 2.10565e-05 -4.67793e-07
107 202469 202469 202469 1.44337e-05 2.09358e-06 -9.36881e-06
108 202469 202469 202469 -1.73236e-05 -1.3422e-07 1.55925e-05
109 202469 202469 202469 2.23401e-05 -3.37326e-05 1.93957e-05
110 202469 202469 202469 1.42851e-05 -9.86938e-06 1.6541e-05
111 202469 202469 202469 -1.57473e-05 1.89677e-05 -2.28113e-05
112 202469 202469 202469 -2.14925e-05 2.51395e-05 2.24391e-08
127 202469 202469 202469 -1.72366e-05 -2.13371e-05 2.18577e-05
116 202469 202469 202469 -2.23797e-05 4.35519e-06 -1.4586e-05
113 202469 202469 202469 -4.69894e-06 -1.87181e-05 3.71973e-06
114 202469 202469 202469 1.94932e-05 4.24188e-08 -1.68691e-05
115 202469 202469 202469 6.48596e-06 1.41863e-05 -1.18422e-05
120 202469 202469 202469 9.89024e-06 1.51625e-05 -2.62518e-05
117 202469 202469 202469 -1.25594e-05 1.16053e-05 1.11276e-05
118 202469 202469 202469 1.09775e-05 -1.90742e-05 4.99447e-06
119 202469 202469 202469 -9.28758e-06 -7.01717e-06 -7.05326e-06
121 202469 202469 202469 1.41971e-05 1.91888e-05 -7.89198e-07
122 202469 202469 202469 -2.30476e-05 -2.71593e-05 1.67532e-05
123 202469 202469 202469 2.00071e-05 -2.08515e-05 -2.5282e-06
124 202469 202469 202469 -1.06572e-05 2.89642e-05 4.8712e-06
128 202469 202469 202469 2.15193e-05 1.50801e-05 3.62981e-05
125 202469 202469 202469 3.22268e-06 8.5222e-06 -1.43609e-05
126 202469 202469 202469 -6.00126e-06 -2.77781e-06 -4.85853e-06
ITEM: TIMESTEP
40000
ITEM: NUMBER OF ATOMS
128
ITEM: BOX BOUNDS pp pp pp
-2.0000000000000000e+01 1.3997309188270103e+02
-2.0000000000000000e+01 1.3997309188270103e+02
-2.0000000000000000e+01 2.0623611615527295e+02
ITEM: ATOMS id c_1_stress[1] c_1_stress[2] c_1_stress[3] c_1_stress[4] c_1_stress[5] c_1_stress[6]
1 202469 202469 202469 -2.17794e-05 4.27975e-07 -1.14604e-05
2 202469 202469 202469 1.49125e-06 -4.17826e-06 5.39853e-06
3 202469 202469 202469 1.21239e-05 1.46273e-05 -1.40521e-07
4 202469 202469 202469 8.01625e-06 -1.0452e-05 -1.37364e-05
5 202469 202469 202469 2.27963e-05 -4.68007e-06 1.18542e-05
6 202469 202469 202469 -1.04263e-05 2.69457e-06 1.31817e-06
7 202469 202469 202469 4.68644e-06 6.75353e-06 8.62816e-07
8 202469 202469 202469 -1.75237e-05 -4.15105e-06 1.40292e-05
9 202469 202469 202469 7.01874e-06 -1.82699e-05 -3.93867e-06
10 202469 202469 202469 5.5758e-06 3.7584e-06 -7.72528e-06
11 202469 202469 202469 -1.87017e-05 9.49458e-06 -1.49429e-06
12 202469 202469 202469 6.76714e-06 4.80664e-06 -2.40059e-06
13 202469 202469 202469 -8.78611e-06 -1.69753e-05 3.02179e-06
14 202469 202469 202469 3.96708e-06 -2.39775e-06 2.57092e-07
15 202469 202469 202469 5.35243e-07 2.25481e-05 1.25873e-06
16 202469 202469 202469 4.0977e-06 -3.76503e-06 3.00391e-06
17 202469 202469 202469 -4.64875e-06 5.26409e-06 5.10736e-06
18 202469 202469 202469 3.43209e-07 -8.41077e-06 1.48179e-06
19 202469 202469 202469 -1.68308e-06 4.79052e-06 -2.47808e-07
20 202469 202469 202469 5.53142e-06 -1.45386e-06 6.9433e-07
21 202469 202469 202469 -1.74926e-06 3.05428e-06 6.16637e-09
22 202469 202469 202469 -1.6032e-06 -3.43267e-06 -2.19292e-06
23 202469 202469 202469 -4.47583e-06 -5.41396e-06 7.10181e-07
24 202469 202469 202469 7.94392e-06 5.22316e-06 4.87358e-07
25 202469 202469 202469 5.91552e-07 -5.22822e-06 -5.27373e-06
26 202469 202469 202469 8.36565e-06 2.54942e-06 1.70833e-06
27 202469 202469 202469 -5.59142e-06 -3.86187e-06 3.65552e-06
28 202469 202469 202469 -3.18267e-06 6.09189e-06 -1.43329e-06
29 202469 202469 202469 6.8544e-06 7.90126e-06 1.7073e-08
30 202469 202469 202469 -7.47519e-06 2.50438e-08 -4.68037e-07
31 202469 202469 202469 1.07432e-05 -4.97574e-06 -3.70157e-06
32 202469 202469 202469 -1.00414e-05 -2.88997e-06 2.38564e-07
33 202469 202469 202469 -6.99048e-06 -5.36352e-06 5.29411e-06
34 202469 202469 202469 -6.13171e-06 -1.19627e-05 -2.68157e-06
35 202469 202469 202469 -2.39809e-06 5.04235e-06 5.2928e-06