ITEM: TIMESTEP
0
ITEM: NUMBER OF ATOMS
128
ITEM: BOX BOUNDS pp pp pp
-2.0000000000000000e+01 1.4000000000000000e+02
-2.0000000000000000e+01 1.4000000000000000e+02
-2.0000000000000000e+01 2.0627416997969522e+02
ITEM: ATOMS id type x y z
1 1 0 0 0
2 1 40 0 0
3 1 80 0 0
4 1 120 0 0
5 1 0 40 0
6 1 40 40 0
7 1 80 40 0
8 1 120 40 0
9 1 0 80 0
10 1 40 80 0
11 1 80 80 0
12 1 120 80 0
13 1 0 120 0
14 1 40 120 0
15 1 80 120 0
16 1 120 120 0
32 1 -20 -20 28.2843
29 1 20 -20 28.2843
30 1 60 -20 28.2843
31 1 100 -20 28.2843
20 1 -20 20 28.2843
17 1 20 20 28.2843
18 1 60 20 28.2843
19 1 100 20 28.2843
24 1 -20 60 28.2843
21 1 20 60 28.2843
22 1 60 60 28.2843
23 1 100 60 28.2843
28 1 -20 100 28.2843
25 1 20 100 28.2843
26 1 60 100 28.2843
27 1 100 100 28.2843
33 1 0 0 56.5685
34 1 40 0 56.5685
35 1 80 0 56.5685
36 1 120 0 56.5685
37 1 0 40 56.5685
38 1 40 40 56.5685
39 1 80 40 56.5685
40 1 120 40 56.5685
41 1 0 80 56.5685
42 1 40 80 56.5685
43 1 80 80 56.5685
44 1 120 80 56.5685
45 1 0 120 56.5685
46 1 40 120 56.5685
47 1 80 120 56.5685
48 1 120 120 56.5685
64 1 -20 -20 84.8528
61 1 20 -20 84.8528
62 1 60 -20 84.8528
63 1 100 -20 84.8528
52 1 -20 20 84.8528
49 1 20 20 84.8528
50 1 60 20 84.8528
51 1 100 20 84.8528
56 1 -20 60 84.8528
53 1 20 60 84.8528
54 1 60 60 84.8528
55 1 100 60 84.8528
60 1 -20 100 84.8528
57 1 20 100 84.8528
58 1 60 100 84.8528
59 1 100 100 84.8528
65 1 0 0 113.137
66 1 40 0 113.137
67 1 80 0 113.137
68 1 120 0 113.137
69 1 0 40 113.137
70 1 40 40 113.137
71 1 80 40 113.137
72 1 120 40 113.137
73 1 0 80 113.137
74 1 40 80 113.137
75 1 80 80 113.137
76 1 120 80 113.137
77 1 0 120 113.137
78 1 40 120 113.137
79 1 80 120 113.137
80 1 120 120 113.137
96 1 -20 -20 141.421
93 1 20 -20 141.421
94 1 60 -20 141.421
95 1 100 -20 141.421
84 1 -20 20 141.421
81 1 20 20 141.421
82 1 60 20 141.421
83 1 100 20 141.421
88 1 -20 60 141.421
85 1 20 60 141.421
86 1 60 60 141.421
87 1 100 60 141.421
92 1 -20 100 141.421
89 1 20 100 141.421
90 1 60 100 141.421
91 1 100 100 141.421
97 1 0 0 169.706
98 1 40 0 169.706
99 1 80 0 169.706
100 1 120 0 169.706
101 1 0 40 169.706
102 1 40 40 169.706
103 1 80 40 169.706
104 1 120 40 169.706
105 1 0 80 169.706
106 1 40 80 169.706
107 1 80 80 169.706
108 1 120 80 169.706
109 1 0 120 169.706
110 1 40 120 169.706
111 1 80 120 169.706
112 1 120 120 169.706
128 1 -20 -20 197.99
125 1 20 -20 197.99
126 1 60 -20 197.99
127 1 100 -20 197.99
116 1 -20 20 197.99
113 1 20 20 197.99
114 1 60 20 197.99
115 1 100 20 197.99
120 1 -20 60 197.99
117 1 20 60 197.99
118 1 60 60 197.99
119 1 100 60 197.99
124 1 -20 100 197.99
121 1 20 100 197.99
122 1 60 100 197.99
123 1 100 100 197.99
ITEM: TIMESTEP
10000
ITEM: NUMBER OF ATOMS
128
ITEM: BOX BOUNDS pp pp pp
-2.0000000000000000e+01 1.3997310555208477e+02
-2.0000000000000000e+01 1.3997310555208477e+02
-2.0000000000000000e+01 2.0623613548672003e+02
ITEM: ATOMS id type x y z
1 1 -0.00336181 -0.00336181 -0.00336181
2 1 39.9899 -0.00336181 -0.00336181
3 1 79.9832 -0.00336181 -0.00336181
4 1 119.976 -0.00336181 -0.00336181
5 1 -0.00336181 39.9899 -0.00336181
6 1 39.9899 39.9899 -0.00336181
7 1 79.9832 39.9899 -0.00336181
8 1 119.976 39.9899 -0.00336181
9 1 -0.00336181 79.9832 -0.00336181
10 1 39.9899 79.9832 -0.00336181
11 1 79.9832 79.9832 -0.00336181
12 1 119.976 79.9832 -0.00336181
13 1 -0.00336181 119.976 -0.00336181
14 1 39.9899 119.976 -0.00336181
15 1 79.9832 119.976 -0.00336181
16 1 119.976 119.976 -0.00336181
17 1 19.9933 19.9933 28.2762
18 1 59.9866 19.9933 28.2762
19 1 99.9798 19.9933 28.2762
20 1 139.973 19.9933 28.2762
21 1 19.9933 59.9866 28.2762
22 1 59.9866 59.9866 28.2762
23 1 99.9798 59.9866 28.2762
24 1 139.973 59.9866 28.2762
25 1 19.9933 99.9798 28.2762
26 1 59.9866 99.9798 28.2762
27 1 99.9798 99.9798 28.2762
28 1 139.973 99.9798 28.2762
32 1 -20 139.973 28.2762
29 1 19.9933 139.973 28.2762
30 1 59.9866 139.973 28.2762
31 1 99.9798 139.973 28.2762
33 1 -0.00336181 -0.00336181 56.5557
34 1 39.9899 -0.00336181 56.5557
35 1 79.9832 -0.00336181 56.5557
36 1 119.976 -0.00336181 56.5557
37 1 -0.00336181 39.9899 56.5557
38 1 39.9899 39.9899 56.5557
39 1 79.9832 39.9899 56.5557
40 1 119.976 39.9899 56.5557
41 1 -0.00336181 79.9832 56.5557
42 1 39.9899 79.9832 56.5557
43 1 79.9832 79.9832 56.5557
44 1 119.976 79.9832 56.5557
45 1 -0.00336181 119.976 56.5557
46 1 39.9899 119.976 56.5557
47 1 79.9832 119.976 56.5557
48 1 119.976 119.976 56.5557
63 1 99.9798 -20 84.8352
52 1 -20 19.9933 84.8352
49 1 19.9933 19.9933 84.8352
50 1 59.9866 19.9933 84.8352
51 1 99.9798 19.9933 84.8352
53 1 19.9933 59.9866 84.8352
54 1 59.9866 59.9866 84.8352
55 1 99.9798 59.9866 84.8352
56 1 139.973 59.9866 84.8352
57 1 19.9933 99.9798 84.8352
58 1 59.9866 99.9798 84.8352
59 1 99.9798 99.9798 84.8352
60 1 139.973 99.9798 84.8352
64 1 -20 139.973 84.8352
61 1 19.9933 139.973 84.8352
62 1 59.9866 139.973 84.8352
65 1 -0.00336181 -0.00336181 113.115
66 1 39.9899 -0.00336181 113.115
67 1 79.9832 -0.00336181 113.115
68 1 119.976 -0.00336181 113.115
69 1 -0.00336181 39.9899 113.115
70 1 39.9899 39.9899 113.115
71 1 79.9832 39.9899 113.115
72 1 119.976 39.9899 113.115
73 1 -0.00336181 79.9832 113.115
74 1 39.9899 79.9832 113.115
75 1 79.9832 79.9832 113.115
76 1 119.976 79.9832 113.115
77 1 -0.00336181 119.976 113.115
78 1 39.9899 119.976 113.115
79 1 79.9832 119.976 113.115
80 1 119.976 119.976 113.115
96 1 -20 -20 141.394
93 1 19.9933 -20 141.394
94 1 59.9866 -20 141.394
95 1 99.9798 -20 141.394
81 1 19.9933 19.9933 141.394
82 1 59.9866 19.9933 141.394
83 1 99.9798 19.9933 141.394
84 1 139.973 19.9933 141.394
88 1 -20 59.9866 141.394
85 1 19.9933 59.9866 141.394
86 1 59.9866 59.9866 141.394
87 1 99.9798 59.9866 141.394
92 1 -20 99.9798 141.394
89 1 19.9933 99.9798 141.394
90 1 59.9866 99.9798 141.394
91 1 99.9798 99.9798 141.394
97 1 -0.00336181 -0.00336181 169.674
98 1 39.9899 -0.00336181 169.674
99 1 79.9832 -0.00336181 169.674
100 1 119.976 -0.00336181 169.674
101 1 -0.00336181 39.9899 169.674
102 1 39.9899 39.9899 169.674
103 1 79.9832 39.9899 169.674
104 1 119.976 39.9899 169.674
105 1 -0.00336181 79.9832 169.674
106 1 39.9899 79.9832 169.674
107 1 79.9832 79.9832 169.674
108 1 119.976 79.9832 169.674
109 1 -0.00336181 119.976 169.674
110 1 39.9899 119.976 169.674
111 1 79.9832 119.976 169.674
112 1 119.976 119.976 169.674
127 1 99.9798 -20 197.953
116 1 -20 19.9933 197.953
113 1 19.9933 19.9933 197.953
114 1 59.9866 19.9933 197.953
115 1 99.9798 19.9933 197.953
120 1 -20 59.9866 197.953
117 1 19.9933 59.9866 197.953
118 1 59.9866 59.9866 197.953
119 1 99.9798 59.9866 197.953
124 1 -20 99.9798 197.953
121 1 19.9933 99.9798 197.953
122 1 59.9866 99.9798 197.953
123 1 99.9798 99.9798 197.953
128 1 -20 139.973 197.953
125 1 19.9933 139.973 197.953
126 1 59.9866 139.973 197.953
ITEM: TIMESTEP
20000
ITEM: NUMBER OF ATOMS
128
ITEM: BOX BOUNDS pp pp pp
-2.0000000000000000e+01 1.3997309188524576e+02
-2.0000000000000000e+01 1.3997309188524576e+02
-2.0000000000000000e+01 2.0623611615888987e+02
ITEM: ATOMS id type x y z
1 1 -0.00336351 -0.00336351 -0.00336351
2 1 39.9899 -0.00336351 -0.00336351
3 1 79.9832 -0.00336351 -0.00336351
4 1 119.976 -0.00336351 -0.00336351
5 1 -0.00336351 39.9899 -0.00336351
6 1 39.9899 39.9899 -0.00336351
7 1 79.9832 39.9899 -0.00336351
8 1 119.976 39.9899 -0.00336351
9 1 -0.00336351 79.9832 -0.00336351
10 1 39.9899 79.9832 -0.00336351
11 1 79.9832 79.9832 -0.00336351
12 1 119.976 79.9832 -0.00336351
13 1 -0.00336351 119.976 -0.00336351
14 1 39.9899 119.976 -0.00336351
15 1 79.9832 119.976 -0.00336351
16 1 119.976 119.976 -0.00336351
17 1 19.9933 19.9933 28.2762
18 1 59.9865 19.9933 28.2762
19 1 99.9798 19.9933 28.2762
20 1 139.973 19.9933 28.2762
21 1 19.9933 59.9865 28.2762
22 1 59.9865 59.9865 28.2762
23 1 99.9798 59.9865 28.2762
24 1 139.973 59.9865 28.2762
25 1 19.9933 99.9798 28.2762
26 1 59.9865 99.9798 28.2762
27 1 99.9798 99.9798 28.2762
28 1 139.973 99.9798 28.2762
32 1 -20 139.973 28.2762
29 1 19.9933 139.973 28.2762
30 1 59.9865 139.973 28.2762
31 1 99.9798 139.973 28.2762
33 1 -0.00336351 -0.00336351 56.5557
34 1 39.9899 -0.00336351 56.5557
35 1 79.9832 -0.00336351 56.5557
36 1 119.976 -0.00336351 56.5557
37 1 -0.00336351 39.9899 56.5557
38 1 39.9899 39.9899 56.5557
39 1 79.9832 39.9899 56.5557
40 1 119.976 39.9899 56.5557
41 1 -0.00336351 79.9832 56.5557
42 1 39.9899 79.9832 56.5557
43 1 79.9832 79.9832 56.5557
44 1 119.976 79.9832 56.5557
45 1 -0.00336351 119.976 56.5557
46 1 39.9899 119.976 56.5557
47 1 79.9832 119.976 56.5557
48 1 119.976 119.976 56.5557
63 1 99.9798 -20 84.8352
52 1 -20 19.9933 84.8352
49 1 19.9933 19.9933 84.8352
50 1 59.9865 19.9933 84.8352
51 1 99.9798 19.9933 84.8352
53 1 19.9933 59.9865 84.8352
54 1 59.9865 59.9865 84.8352
55 1 99.9798 59.9865 84.8352
56 1 139.973 59.9865 84.8352
57 1 19.9933 99.9798 84.8352
58 1 59.9865 99.9798 84.8352
59 1 99.9798 99.9798 84.8352
60 1 139.973 99.9798 84.8352
64 1 -20 139.973 84.8352
61 1 19.9933 139.973 84.8352
62 1 59.9865 139.973 84.8352
65 1 -0.00336351 -0.00336351 113.115
66 1 39.9899 -0.00336351 113.115
67 1 79.9832 -0.00336351 113.115
68 1 119.976 -0.00336351 113.115
69 1 -0.00336351 39.9899 113.115
70 1 39.9899 39.9899 113.115
71 1 79.9832 39.9899 113.115
72 1 119.976 39.9899 113.115
73 1 -0.00336351 79.9832 113.115
74 1 39.9899 79.9832 113.115
75 1 79.9832 79.9832 113.115
76 1 119.976 79.9832 113.115
77 1 -0.00336351 119.976 113.115
78 1 39.9899 119.976 113.115
79 1 79.9832 119.976 113.115
80 1 119.976 119.976 113.115
96 1 -20 -20 141.394
93 1 19.9933 -20 141.394
94 1 59.9865 -20 141.394
95 1 99.9798 -20 141.394
81 1 19.9933 19.9933 141.394
82 1 59.9865 19.9933 141.394
83 1 99.9798 19.9933 141.394
84 1 139.973 19.9933 141.394
88 1 -20 59.9865 141.394
85 1 19.9933 59.9865 141.394
86 1 59.9865 59.9865 141.394
87 1 99.9798 59.9865 141.394
92 1 -20 99.9798 141.394
89 1 19.9933 99.9798 141.394
90 1 59.9865 99.9798 141.394
91 1 99.9798 99.9798 141.394
97 1 -0.00336351 -0.00336351 169.674
98 1 39.9899 -0.00336351 169.674
99 1 79.9832 -0.00336351 169.674
100 1 119.976 -0.00336351 169.674
101 1 -0.00336351 39.9899 169.674
102 1 39.9899 39.9899 169.674
103 1 79.9832 39.9899 169.674
104 1 119.976 39.9899 169.674
105 1 -0.00336351 79.9832 169.674
106 1 39.9899 79.9832 169.674
107 1 79.9832 79.9832 169.674
108 1 119.976 79.9832 169.674
109 1 -0.00336351 119.976 169.674
110 1 39.9899 119.976 169.674
111 1 79.9832 119.976 169.674
112 1 119.976 119.976 169.674
127 1 99.9798 -20 197.953
116 1 -20 19.9933 197.953
113 1 19.9933 19.9933 197.953
114 1 59.9865 19.9933 197.953
115 1 99.9798 19.9933 197.953
120 1 -20 59.9865 197.953
117 1 19.9933 59.9865 197.953
118 1 59.9865 59.9865 197.953
119 1 99.9798 59.9865 197.953
124 1 -20 99.9798 197.953
121 1 19.9933 99.9798 197.953
122 1 59.9865 99.9798 197.953
123 1 99.9798 99.9798 197.953
128 1 -20 139.973 197.953
125 1 19.9933 139.973 197.953
126 1 59.9865 139.973 197.953
ITEM: TIMESTEP
30000
ITEM: NUMBER OF ATOMS
128
ITEM: BOX BOUNDS pp pp pp
-2.0000000000000000e+01 1.3997309188270103e+02
-2.0000000000000000e+01 1.3997309188270103e+02
-2.0000000000000000e+01 2.0623611615527426e+02
ITEM: ATOMS id type x y z
1 1 -0.00336351 -0.00336351 -0.00336351
2 1 39.9899 -0.00336351 -0.00336351
3 1 79.9832 -0.00336351 -0.00336351
4 1 119.976 -0.00336351 -0.00336351
5 1 -0.00336351 39.9899 -0.00336351
6 1 39.9899 39.9899 -0.00336351
7 1 79.9832 39.9899 -0.00336351
8 1 119.976 39.9899 -0.00336351
9 1 -0.00336351 79.9832 -0.00336351
10 1 39.9899 79.9832 -0.00336351
11 1 79.9832 79.9832 -0.00336351
12 1 119.976 79.9832 -0.00336351
13 1 -0.00336351 119.976 -0.00336351
14 1 39.9899 119.976 -0.00336351
15 1 79.9832 119.976 -0.00336351
16 1 119.976 119.976 -0.00336351
17 1 19.9933 19.9933 28.2762
18 1 59.9865 19.9933 28.2762
19 1 99.9798 19.9933 28.2762
20 1 139.973 19.9933 28.2762
21 1 19.9933 59.9865 28.2762
22 1 59.9865 59.9865 28.2762
23 1 99.9798 59.9865 28.2762
24 1 139.973 59.9865 28.2762
25 1 19.9933 99.9798 28.2762
26 1 59.9865 99.9798 28.2762
27 1 99.9798 99.9798 28.2762
28 1 139.973 99.9798 28.2762
29 1 19.9933 139.973 28.2762
30 1 59.9865 139.973 28.2762
31 1 99.9798 139.973 28.2762
32 1 139.973 139.973 28.2762
33 1 -0.00336351 -0.00336351 56.5557
34 1 39.9899 -0.00336351 56.5557
35 1 79.9832 -0.00336351 56.5557
36 1 119.976 -0.00336351 56.5557
37 1 -0.00336351 39.9899 56.5557
38 1 39.9899 39.9899 56.5557
39 1 79.9832 39.9899 56.5557
40 1 119.976 39.9899 56.5557
41 1 -0.00336351 79.9832 56.5557
42 1 39.9899 79.9832 56.5557
43 1 79.9832 79.9832 56.5557
44 1 119.976 79.9832 56.5557
45 1 -0.00336351 119.976 56.5557
46 1 39.9899 119.976 56.5557
47 1 79.9832 119.976 56.5557
48 1 119.976 119.976 56.5557
63 1 99.9798 -20 84.8352
49 1 19.9933 19.9933 84.8352
50 1 59.9865 19.9933 84.8352
51 1 99.9798 19.9933 84.8352
52 1 139.973 19.9933 84.8352
53 1 19.9933 59.9865 84.8352
54 1 59.9865 59.9865 84.8352
55 1 99.9798 59.9865 84.8352
56 1 139.973 59.9865 84.8352
57 1 19.9933 99.9798 84.8352
58 1 59.9865 99.9798 84.8352
59 1 99.9798 99.9798 84.8352
60 1 139.973 99.9798 84.8352
61 1 19.9933 139.973 84.8352
62 1 59.9865 139.973 84.8352
64 1 139.973 139.973 84.8352
65 1 -0.00336351 -0.00336351 113.115
66 1 39.9899 -0.00336351 113.115
67 1 79.9832 -0.00336351 113.115
68 1 119.976 -0.00336351 113.115
69 1 -0.00336351 39.9899 113.115
70 1 39.9899 39.9899 113.115
71 1 79.9832 39.9899 113.115
72 1 119.976 39.9899 113.115
73 1 -0.00336351 79.9832 113.115
74 1 39.9899 79.9832 113.115
75 1 79.9832 79.9832 113.115
76 1 119.976 79.9832 113.115
77 1 -0.00336351 119.976 113.115
78 1 39.9899 119.976 113.115
79 1 79.9832 119.976 113.115
80 1 119.976 119.976 113.115
96 1 -20 -20 141.394
93 1 19.9933 -20 141.394
95 1 99.9798 -20 141.394
81 1 19.9933 19.9933 141.394
82 1 59.9865 19.9933 141.394
83 1 99.9798 19.9933 141.394
84 1 139.973 19.9933 141.394
88 1 -20 59.9865 141.394
85 1 19.9933 59.9865 141.394
86 1 59.9865 59.9865 141.394
87 1 99.9798 59.9865 141.394
89 1 19.9933 99.9798 141.394
90 1 59.9865 99.9798 141.394
91 1 99.9798 99.9798 141.394
92 1 139.973 99.9798 141.394
94 1 59.9865 139.973 141.394
97 1 -0.00336351 -0.00336351 169.674
98 1 39.9899 -0.00336351 169.674
99 1 79.9832 -0.00336351 169.674
100 1 119.976 -0.00336351 169.674
101 1 -0.00336351 39.9899 169.674
102 1 39.9899 39.9899 169.674
103 1 79.9832 39.9899 169.674
104 1 119.976 39.9899 169.674
105 1 -0.00336351 79.9832 169.674
106 1 39.9899 79.9832 169.674
107 1 79.9832 79.9832 169.674
108 1 119.976 79.9832 169.674
109 1 -0.00336351 119.976 169.674
110 1 39.9899 119.976 169.674
111 1 79.9832 119.976 169.674
112 1 119.976 119.976 169.674
127 1 99.9798 -20 197.953
116 1 -20 19.9933 197.953
113 1 19.9933 19.9933 197.953
114 1 59.9865 19.9933 197.953
115 1 99.9798 19.9933 197.953
120 1 -20 59.9865 197.953
117 1 19.9933 59.9865 197.953
118 1 59.9865 59.9865 197.953
119 1 99.9798 59.9865 197.953
121 1 19.9933 99.9798 197.953
122 1 59.9865 99.9798 197.953
123 1 99.9798 99.9798 197.953
124 1 139.973 99.9798 197.953
128 1 -20 139.973 197.953
125 1 19.9933 139.973 197.953
126 1 59.9865 139.973 197.953
ITEM: TIMESTEP
40000
ITEM: NUMBER OF ATOMS
128
ITEM: BOX BOUNDS pp pp pp
-2.0000000000000000e+01 1.3997309188270103e+02
-2.0000000000000000e+01 1.3997309188270103e+02
-2.0000000000000000e+01 2.0623611615527295e+02
ITEM: ATOMS id type x y z
1 1 -0.00336351 -0.00336351 -0.00336351
2 1 39.9899 -0.00336351 -0.00336351
3 1 79.9832 -0.00336351 -0.00336351
4 1 119.976 -0.00336351 -0.00336351
5 1 -0.00336351 39.9899 -0.00336351
6 1 39.9899 39.9899 -0.00336351
7 1 79.9832 39.9899 -0.00336351
8 1 119.976 39.9899 -0.00336351
9 1 -0.00336351 79.9832 -0.00336351
10 1 39.9899 79.9832 -0.00336351
11 1 79.9832 79.9832 -0.00336351
12 1 119.976 79.9832 -0.00336351
13 1 -0.00336351 119.976 -0.00336351
14 1 39.9899 119.976 -0.00336351
15 1 79.9832 119.976 -0.00336351
16 1 119.976 119.976 -0.00336351
17 1 19.9933 19.9933 28.2762
18 1 59.9865 19.9933 28.2762
19 1 99.9798 19.9933 28.2762
20 1 139.973 19.9933 28.2762
21 1 19.9933 59.9865 28.2762
22 1 59.9865 59.9865 28.2762
23 1 99.9798 59.9865 28.2762
24 1 139.973 59.9865 28.2762
25 1 19.9933 99.9798 28.2762
26 1 59.9865 99.9798 28.2762
27 1 99.9798 99.9798 28.2762
28 1 139.973 99.9798 28.2762
29 1 19.9933 139.973 28.2762
30 1 59.9865 139.973 28.2762
31 1 99.9798 139.973 28.2762
32 1 139.973 139.973 28.2762
33 1 -0.00336351 -0.00336351 56.5557
34 1 39.9899 -0.00336351 56.5557
35 1 79.9832 -0.00336351 56.5557
36 1 119.976 -0.00336351 56.5557
37 1 -0.00336351 39.9899 56.5557
38 1 39.9899 39.9899 56.5557
39 1 79.9832 39.9899 56.5557
40 1 119.976 39.9899 56.5557
41 1 -0.00336351 79.9832 56.5557
42 1 39.9899 79.9832 56.5557
43 1 79.9832 79.9832 56.5557
44 1 119.976 79.9832 56.5557
45 1 -0.00336351 119.976 56.5557
46 1 39.9899 119.976 56.5557
47 1 79.9832 119.976 56.5557
48 1 119.976 119.976 56.5557
63 1 99.9798 -20 84.8352
49 1 19.9933 19.9933 84.8352
50 1 59.9865 19.9933 84.8352
51 1 99.9798 19.9933 84.8352
52 1 139.973 19.9933 84.8352
53 1 19.9933 59.9865 84.8352
54 1 59.9865 59.9865 84.8352
55 1 99.9798 59.9865 84.8352
56 1 139.973 59.9865 84.8352
57 1 19.9933 99.9798 84.8352
58 1 59.9865 99.9798 84.8352
59 1 99.9798 99.9798 84.8352
60 1 139.973 99.9798 84.8352
61 1 19.9933 139.973 84.8352
62 1 59.9865 139.973 84.8352
64 1 139.973 139.973 84.8352
65 1 -0.00336351 -0.00336351 113.115
66 1 39.9899 -0.00336351 113.115
67 1 79.9832 -0.00336351 113.115
68 1 119.976 -0.00336351 113.115
69 1 -0.00336351 39.9899 113.115
70 1 39.9899 39.9899 113.115
71 1 79.9832 39.9899 113.115
72 1 119.976 39.9899 113.115
73 1 -0.00336351 79.9832 113.115
74 1 39.9899 79.9832 113.115
75 1 79.9832 79.9832 113.115
76 1 119.976 79.9832 113.115
77 1 -0.00336351 119.976 113.115
78 1 39.9899 119.976 113.115
79 1 79.9832 119.976 113.115
80 1 119.976 119.976 113.115
96 1 -20 -20 141.394
93 1 19.9933 -20 141.394
95 1 99.9798 -20 141.394
81 1 19.9933 19.9933 141.394
82 1 59.9865 19.9933 141.394
83 1 99.9798 19.9933 141.394
84 1 139.973 19.9933 141.394
88 1 -20 59.9865 141.394
85 1 19.9933 59.9865 141.394
86 1 59.9865 59.9865 141.394
87 1 99.9798 59.9865 141.394
89 1 19.9933 99.9798 141.394
90 1 59.9865 99.9798 141.394
91 1 99.9798 99.9798 141.394
92 1 139.973 99.9798 141.394
94 1 59.9865 139.973 141.394
97 1 -0.00336351 -0.00336351 169.674
98 1 39.9899 -0.00336351 169.674
99 1 79.9832 -0.00336351 169.674
100 1 119.976 -0.00336351 169.674
101 1 -0.00336351 39.9899 169.674
102 1 39.9899 39.9899 169.674
103 1 79.9832 39.9899 169.674
104 1 119.976 39.9899 169.674
105 1 -0.00336351 79.9832 169.674
106 1 39.9899 79.9832 169.674
107 1 79.9832 79.9832 169.674
108 1 119.976 79.9832 169.674
109 1 -0.00336351 119.976 169.674
110 1 39.9899 119.976 169.674
111 1 79.9832 119.976 169.674
112 1 119.976 119.976 169.674
127 1 99.9798 -20 197.953
116 1 -20 19.9933 197.953
113 1 19.9933 19.9933 197.953
114 1 59.9865 19.9933 197.953
115 1 99.9798 19.9933 197.953
120 1 -20 59.9865 197.953
117 1 19.9933 59.9865 197.953
118 1 59.9865 59.9865 197.953
119 1 99.9798 59.9865 197.953
121 1 19.9933 99.9798 197.953
122 1 59.9865 99.9798 197.953
123 1 99.9798 99.9798 197.953
124 1 139.973 99.9798 197.953
128 1 -20 139.973 197.953
125 1 19.9933 139.973 197.953
126 1 59.9865 139.973 197.953
ITEM: TIMESTEP
50000
ITEM: NUMBER OF ATOMS
128
ITEM: BOX BOUNDS pp pp pp
-2.0000000000000000e+01 1.3997309188270103e+02
-2.0000000000000000e+01 1.3997309188270103e+02
-2.0000000000000000e+01 2.0623611615527292e+02
ITEM: ATOMS id type x y z
1 1 -0.00336351 -0.00336351 -0.00336351
2 1 39.9899 -0.00336351 -0.00336351
3 1 79.9832 -0.00336351 -0.00336351
4 1 119.976 -0.00336351 -0.00336351
5 1 -0.00336351 39.9899 -0.00336351
6 1 39.9899 39.9899 -0.00336351
7 1 79.9832 39.9899 -0.00336351
8 1 119.976 39.9899 -0.00336351
9 1 -0.00336351 79.9832 -0.00336351
10 1 39.9899 79.9832 -0.00336351
11 1 79.9832 79.9832 -0.00336351
12 1 119.976 79.9832 -0.00336351
13 1 -0.00336351 119.976 -0.00336351
14 1 39.9899 119.976 -0.00336351
15 1 79.9832 119.976 -0.00336351
16 1 119.976 119.976 -0.00336351
17 1 19.9933 19.9933 28.2762
18 1 59.9865 19.9933 28.2762
19 1 99.9798 19.9933 28.2762
20 1 139.973 19.9933 28.2762
21 1 19.9933 59.9865 28.2762
22 1 59.9865 59.9865 28.2762
23 1 99.9798 59.9865 28.2762
24 1 139.973 59.9865 28.2762
25 1 19.9933 99.9798 28.2762
26 1 59.9865 99.9798 28.2762
27 1 99.9798 99.9798 28.2762
28 1 139.973 99.9798 28.2762
29 1 19.9933 139.973 28.2762
30 1 59.9865 139.973 28.2762
31 1 99.9798 139.973 28.2762
32 1 139.973 139.973 28.2762
33 1 -0.00336351 -0.00336351 56.5557
34 1 39.9899 -0.00336351 56.5557
35 1 79.9832 -0.00336351 56.5557
36 1 119.976 -0.00336351 56.5557
37 1 -0.00336351 39.9899 56.5557
38 1 39.9899 39.9899 56.5557
39 1 79.9832 39.9899 56.5557
40 1 119.976 39.9899 56.5557
41 1 -0.00336351 79.9832 56.5557
42 1 39.9899 79.9832 56.5557
43 1 79.9832 79.9832 56.5557
44 1 119.976 79.9832 56.5557
45 1 -0.00336351 119.976 56.5557
46 1 39.9899 119.976 56.5557
47 1 79.9832 119.976 56.5557
48 1 119.976 119.976 56.5557
63 1 99.9798 -20 84.8352
49 1 19.9933 19.9933 84.8352
50 1 59.9865 19.9933 84.8352
51 1 99.9798 19.9933 84.8352
52 1 139.973 19.9933 84.8352
53 1 19.9933 59.9865 84.8352
54 1 59.9865 59.9865 84.8352
55 1 99.9798 59.9865 84.8352
56 1 139.973 59.9865 84.8352
57 1 19.9933 99.9798 84.8352
58 1 59.9865 99.9798 84.8352
59 1 99.9798 99.9798 84.8352
60 1 139.973 99.9798 84.8352
61 1 19.9933 139.973 84.8352
62 1 59.9865 139.973 84.8352
64 1 139.973 139.973 84.8352
65 1 -0.00336351 -0.00336351 113.115
66 1 39.9899 -0.00336351 113.115
67 1 79.9832 -0.00336351 113.115
68 1 119.976 -0.00336351 113.115
69 1 -0.00336351 39.9899 113.115
70 1 39.9899 39.9899 113.115
71 1 79.9832 39.9899 113.115
72 1 119.976 39.9899 113.115
73 1 -0.00336351 79.9832 113.115
74 1 39.9899 79.9832 113.115
75 1 79.9832 79.9832 113.115
76 1 119.976 79.9832 113.115
77 1 -0.00336351 119.976 113.115
78 1 39.9899 119.976 113.115
79 1 79.9832 119.976 113.115
80 1 119.976 119.976 113.115
96 1 -20 -20 141.394
93 1 19.9933 -20 141.394
95 1 99.9798 -20 141.394
81 1 19.9933 19.9933 141.394
82 1 59.9865 19.9933 141.394
83 1 99.9798 19.9933 141.394
84 1 139.973 19.9933 141.394
88 1 -20 59.9865 141.394
85 1 19.9933 59.9865 141.394
86 1 59.9865 59.9865 141.394
87 1 99.9798 59.9865 141.394
89 1 19.9933 99.9798 141.394
90 1 59.9865 99.9798 141.394
91 1 99.9798 99.9798 141.394
92 1 139.973 99.9798 141.394
94 1 59.9865 139.973 141.394
97 1 -0.00336351 -0.00336351 169.674
98 1 39.9899 -0.00336351 169.674
99 1 79.9832 -0.00336351 169.674
100 1 119.976 -0.00336351 169.674
101 1 -0.00336351 39.9899 169.674
102 1 39.9899 39.9899 169.674
103 1 79.9832 39.9899 169.674
104 1 119.976 39.9899 169.674
105 1 -0.00336351 79.9832 169.674
106 1 39.9899 79.9832 169.674
107 1 79.9832 79.9832 169.674
108 1 119.976 79.9832 169.674
109 1 -0.00336351 119.976 169.674
110 1 39.9899 119.976 169.674
111 1 79.9832 119.976 169.674
112 1 119.976 119.976 169.674
127 1 99.9798 -20 197.953
116 1 -20 19.9933 197.953
113 1 19.9933 19.9933 197.953
114 1 59.9865 19.9933 197.953
115 1 99.9798 19.9933 197.953
120 1 -20 59.9865 197.953
117 1 19.9933 59.9865 197.953
118 1 59.9865 59.9865 197.953
119 1 99.9798 59.9865 197.953
121 1 19.9933 99.9798 197.953
122 1 59.9865 99.9798 197.953
123 1 99.9798 99.9798 197.953
124 1 139.973 99.9798 197.953
128 1 -20 139.973 197.953
125 1 19.9933 139.973 197.953
126 1 59.9865 139.973 197.953
