ITEM: TIMESTEP
800000
ITEM: NUMBER OF ATOMS
36
ITEM: BOX BOUNDS pp pp pp
-7.5000000000000002e-04 2.2468495841683005e-03
-7.5000000000000002e-04 2.2499999999999998e-03
-7.5000000000000002e-04 1.3713203435595999e-03
ITEM: ATOMS id f_3[1] f_3[2] f_3[3]
19 -1.21505e+07 120302 0
12 -7.71358e+06 76372.1 0
14 -1.24024e+07 122796 0
4 -1.0112e+06 10011.9 1
9 -7.12631e+06 70557.5 0
13 -1.02697e+07 101681 0
24 -1.10648e+07 109552 0
3 -812123 8040.82 0
16 -5.11504e+06 50643.9 0
2 -948947 9395.52 0
17 -4.66526e+06 46190.7 0
26 -1.11043e+07 109944 0
21 -4.2116e+06 41699 0
1 -923665 9145.2 1
33 -8.26147e+06 81796.7 0
23 -6.71774e+06 66512.3 0
30 -9.21665e+06 91253.9 0
6 -647701 6412.88 1
5 -850014 8415.98 0
22 -1.02995e+07 101976 0
10 -6.98521e+06 69160.5 0
31 -1.17868e+07 116701 0
32 -5.38865e+06 53352.9 0
34 -9.46161e+06 93679.3 0
15 -9.74594e+06 96494.5 0
29 -1.12721e+07 111605 0
27 -1.19601e+07 118417 0
8 -834093 8258.34 0
20 -9.37431e+06 92815 0
25 -1.20923e+07 119725 0
11 -9.79374e+06 96967.8 0
7 -948334 9389.44 1
18 -5.41389e+06 53602.9 0
28 -9.4518e+06 93582.1 0
36 -1.18205e+07 117035 0
35 -1.23851e+07 122624 0
