ITEM: TIMESTEP
0
ITEM: NUMBER OF ATOMS
8
ITEM: BOX BOUNDS pp pp pp
-7.5000000000000002e-04 2.2499999999999998e-03
-7.5000000000000002e-04 2.2499999999999998e-03
-7.5000000000000002e-04 1.3713203435595999e-03
ITEM: ATOMS id type xs ys zs
1 1 0.25 0.25 0.353553
2 1 0.75 0.25 0.353553
3 1 0.25 0.75 0.353553
4 1 0.75 0.75 0.353553
8 1 0 0 0.853553
7 1 0.5 0 0.853553
6 1 0 0.5 0.853553
5 1 0.5 0.5 0.853553
ITEM: TIMESTEP
100000
ITEM: NUMBER OF ATOMS
8
ITEM: BOX BOUNDS pp pp pp
-7.5000000000000002e-04 2.2496061999900375e-03
-7.5000000000000002e-04 2.2499999999999998e-03
-7.5000000000000002e-04 1.3713203435595999e-03
ITEM: ATOMS id type xs ys zs
1 1 0.25 0.25 0.353553
2 1 0.75 0.25 0.353553
3 1 0.25 0.75 0.353553
4 1 0.75 0.75 0.353553
8 1 -6.50245e-14 -4.23164e-13 0.853553
7 1 0.5 -4.2938e-13 0.853553
6 1 -9.33621e-14 0.5 0.853553
5 1 0.5 0.5 0.853553
ITEM: TIMESTEP
200000
ITEM: NUMBER OF ATOMS
8
ITEM: BOX BOUNDS pp pp pp
-7.5000000000000002e-04 2.2492123999800751e-03
-7.5000000000000002e-04 2.2499999999999998e-03
-7.5000000000000002e-04 1.3713203435595999e-03
ITEM: ATOMS id type xs ys zs
1 1 0.25 0.25 0.353553
2 1 0.75 0.25 0.353553
3 1 0.25 0.75 0.353553
4 1 0.75 0.75 0.353553
8 1 -3.18839e-14 -9.41485e-13 0.853553
7 1 0.5 -9.36787e-13 0.853553
6 1 3.17755e-14 0.5 0.853553
5 1 0.5 0.5 0.853553
ITEM: TIMESTEP
300000
ITEM: NUMBER OF ATOMS
11
ITEM: BOX BOUNDS pp pp pp
-7.5000000000000002e-04 2.2488185960321126e-03
-7.5000000000000002e-04 2.2499999999999998e-03
-7.5000000000000002e-04 1.3713203435595999e-03
ITEM: ATOMS id type xs ys zs
1 1 0.250005 0.249992 0.353553
11 1 0.504496 0.0615956 0.236617
2 1 0.749995 0.249992 0.353553
9 1 0.860119 0.0237507 0.178501
3 1 0.250005 0.750008 0.353553
4 1 0.749995 0.750008 0.353553
6 1 2.77535e-12 0.5 0.853553
5 1 0.5 0.5 0.853553
8 1 2.77011e-12 1 0.853553
7 1 0.5 1 0.853553
10 1 0.668752 0.72201 0.826594
ITEM: TIMESTEP
400000
ITEM: NUMBER OF ATOMS
11
ITEM: BOX BOUNDS pp pp pp
-7.5000000000000002e-04 2.2484247960221503e-03
-7.5000000000000002e-04 2.2499999999999998e-03
-7.5000000000000002e-04 1.3713203435595999e-03
ITEM: ATOMS id type xs ys zs
1 1 0.250007 0.249994 0.353553
11 1 0.504496 0.0615955 0.236617
2 1 0.749993 0.249994 0.353553
9 1 0.860119 0.0237507 0.178501
3 1 0.250007 0.750006 0.353553
4 1 0.749993 0.750006 0.353553
6 1 2.96193e-12 0.5 0.853553
5 1 0.5 0.5 0.853553
8 1 2.94508e-12 1 0.853553
7 1 0.5 1 0.853553
10 1 0.668752 0.72201 0.826594
ITEM: TIMESTEP
500000
ITEM: NUMBER OF ATOMS
19
ITEM: BOX BOUNDS pp pp pp
-7.5000000000000002e-04 2.2480309920741878e-03
-7.5000000000000002e-04 2.2499999999999998e-03
-7.5000000000000002e-04 1.3713203435595999e-03
ITEM: ATOMS id type xs ys zs
1 1 0.250001 0.249992 0.353553
11 1 0.504496 0.0615955 0.236617
13 1 0.478991 0.247271 0.0218256
14 1 0.514014 0.0353694 0.453716
2 1 0.749999 0.249992 0.353553
9 1 0.860123 0.0237516 0.178507
12 1 0.324598 0.520992 0.14534
17 1 0.484825 0.452275 0.320548
3 1 0.250001 0.750008 0.353553
15 1 0.522924 0.780743 0.0939619
4 1 0.749999 0.750008 0.353553
18 1 0.872909 0.979858 0.477895
8 1 -8.74523e-10 8.48984e-08 0.853553
7 1 0.5 4.21771e-08 0.853553
6 1 -8.75226e-10 0.5 0.853553
16 1 0.216904 0.512024 0.589553
5 1 0.5 0.5 0.853553
19 1 0.186097 0.72647 0.778472
10 1 0.668752 0.72201 0.826594
ITEM: TIMESTEP
600000
ITEM: NUMBER OF ATOMS
36
ITEM: BOX BOUNDS pp pp pp
-7.5000000000000002e-04 2.2476371841882252e-03
-7.5000000000000002e-04 2.2499999999999998e-03
-7.5000000000000002e-04 1.3713203435595999e-03
ITEM: ATOMS id type xs ys zs
20 1 0.0607208 0.117841 0.0954388
35 1 0.480865 0.146747 0.131254
24 1 0.812663 0.146834 0.130958
18 1 0.902876 0.087753 0.275988
16 1 0.341845 0.428409 0.426847
1 1 0.384902 0.407786 0.971375
2 1 0.884965 0.408325 0.970814
23 1 0.863677 0.674607 0.248529
3 1 0.384452 0.907801 0.970814
14 1 0.623242 0.95195 0.144586
4 1 0.884487 0.907969 0.970985
29 1 0.174249 0.198556 0.853007
8 1 0.134691 0.158049 0.470845
25 1 0.65615 0.0730725 0.89522
11 1 0.431544 0.15334 0.796221
13 1 0.616556 0.293131 0.821978
32 1 0.38646 0.140098 0.704027
7 1 0.634688 0.157923 0.47072
9 1 0.974885 0.157663 0.867478
22 1 0.913178 0.301389 0.574012
26 1 0.877218 0.266648 0.590125
36 1 0.280723 0.393718 0.597255
6 1 0.134746 0.658028 0.47079
27 1 0.0415181 0.650678 0.866445
12 1 0.371229 0.673471 0.751855
5 1 0.634759 0.658105 0.470803
21 1 0.704027 0.640187 0.956475
34 1 0.882606 0.40901 0.58484
19 1 0.290551 0.857618 0.609197
28 1 0.186879 0.876916 0.70633
33 1 0.264775 0.925109 0.587049
15 1 0.659036 0.950888 0.745404
17 1 0.704323 0.700692 0.89181
10 1 0.72348 0.89259 0.618694
30 1 0.889326 0.791019 0.486978
31 1 0.859096 0.808171 0.608
ITEM: TIMESTEP
700000
ITEM: NUMBER OF ATOMS
36
ITEM: BOX BOUNDS pp pp pp
-7.5000000000000002e-04 2.2472433841782629e-03
-7.5000000000000002e-04 2.2499999999999998e-03
-7.5000000000000002e-04 1.3713203435595999e-03
ITEM: ATOMS id type xs ys zs
7 1 0.146757 0.121231 0.111079
8 1 0.646744 0.120438 0.11111
18 1 0.39092 0.187798 0.272291
26 1 0.389003 0.242775 0.22813
24 1 0.910461 0.104789 0.912151
35 1 0.928806 0.352553 0.0458278
33 1 0.913897 0.32444 0.230318
16 1 0.918901 0.201201 0.287718
5 1 0.147305 0.621036 0.111088
17 1 0.309501 0.408418 0.196513
6 1 0.647337 0.620759 0.111043
11 1 0.240876 0.879379 0.292515
25 1 0.179748 0.864917 0.32878
9 1 0.535133 0.83412 0.934757
10 1 0.420748 0.813797 0.0327248
22 1 0.434615 0.888079 0.178524
19 1 0.924707 0.818362 0.190243
32 1 0.884799 0.971532 0.216842
13 1 0.283335 0.141702 0.772367
21 1 0.0939401 0.116743 0.642406
20 1 0.0767261 0.175241 0.734673
15 1 0.133229 0.212957 0.60774
36 1 0.151615 0.369507 0.438445
28 1 0.600518 0.18057 0.565011
23 1 0.555477 0.0893026 0.546472
29 1 0.635622 0.09295 0.54873
34 1 0.708037 0.0606874 0.740108
14 1 0.262095 0.641604 0.682359
12 1 0.093949 0.642422 0.57311
2 1 0.397445 0.371171 0.611092
31 1 0.622509 0.656677 0.635858
1 1 0.897448 0.371104 0.61128
27 1 0.728322 0.631453 0.672185
30 1 0.662183 0.708675 0.735213
4 1 0.396967 0.870792 0.611138
3 1 0.89693 0.870643 0.611068
ITEM: TIMESTEP
800000
ITEM: NUMBER OF ATOMS
36
ITEM: BOX BOUNDS pp pp pp
-7.5000000000000002e-04 2.2468495841683005e-03
-7.5000000000000002e-04 2.2499999999999998e-03
-7.5000000000000002e-04 1.3713203435595999e-03
ITEM: ATOMS id type xs ys zs
19 1 0.215327 0.233417 0.200623
12 1 0.835534 0.0252934 0.866156
14 1 0.945448 0.0381811 0.810965
4 1 0.177364 0.30334 0.765104
9 1 0.951258 0.295854 0.069557
13 1 0.994759 0.323333 0.0473794
24 1 0.529266 0.303038 0.136582
3 1 0.677346 0.303078 0.765844
16 1 0.694537 0.395115 0.151203
2 1 0.177805 0.803681 0.765904
17 1 0.227147 0.831055 0.271604
26 1 0.427985 0.862553 0.914089
21 1 0.514008 0.795111 0.0739718
1 1 0.677799 0.803394 0.7659
33 1 0.656775 0.847651 0.178255
23 1 0.671585 0.646835 0.102823
30 1 0.358247 0.0489546 0.741981
6 1 0.427451 0.0534673 0.265972
5 1 0.92745 0.0532432 0.265822
22 1 0.223595 0.608141 0.505276
10 1 0.0965004 0.358948 0.393869
31 1 0.0588973 0.338231 0.412075
32 1 0.18596 0.265179 0.257391
34 1 0.417377 0.470981 0.67249
15 1 0.2773 0.57888 0.593169
29 1 0.578276 0.54276 0.585273
27 1 0.363911 0.290551 0.454917
8 1 0.427868 0.553751 0.266061
20 1 0.85941 0.575961 0.701894
25 1 0.803625 0.565286 0.72358
11 1 0.688165 0.438817 0.39063
7 1 0.927867 0.553008 0.264951
18 1 0.166904 0.855516 0.321211
28 1 0.0858038 0.776915 0.224227
36 1 0.191678 0.760857 0.355015
35 1 0.642917 0.728793 0.353545
ITEM: TIMESTEP
900000
ITEM: NUMBER OF ATOMS
45
ITEM: BOX BOUNDS pp pp pp
-7.5000000000000002e-04 2.2464557802203381e-03
-7.5000000000000002e-04 2.2499999999999998e-03
-7.5000000000000002e-04 1.3713203435595999e-03
ITEM: ATOMS id type xs ys zs
17 1 0.200494 0.00368874 0.869089
18 1 0.139362 0.0312843 0.821766
14 1 0.988293 0.212082 0.275685
35 1 0.613235 0.0752969 0.925765
42 1 0.77089 0.0519899 0.931309
39 1 0.914568 0.970454 0.101218
32 1 0.100075 0.500718 0.91865
37 1 0.193171 0.488046 0.874527
6 1 0.426033 0.265961 0.817559
11 1 0.557238 0.515269 0.948719
30 1 0.529941 0.282522 0.29164
13 1 0.462748 0.478545 0.0859708
23 1 0.60153 0.268482 0.181677
5 1 0.926038 0.265192 0.81712
38 1 0.68956 0.431598 0.952847
16 1 0.827414 0.51374 0.905825
31 1 0.198436 0.634512 0.942505
22 1 0.00728494 0.74964 0.28001
8 1 0.426466 0.765836 0.817158
27 1 0.392294 0.672856 0.199984
29 1 0.670872 0.865907 -0.00389615
7 1 0.926469 0.765248 0.817214
41 1 0.742349 0.764565 0.165232
10 1 0.164185 0.126091 0.799664
2 1 0.17628 0.0152653 0.317124
21 1 0.507348 0.0120526 0.653607
26 1 0.544727 0.0198253 0.734471
33 1 0.386355 0.201615 0.43452
40 1 0.677442 0.156902 0.765852
1 1 0.67626 0.015606 0.317215
9 1 0.975333 0.517555 0.668992
12 1 0.985446 0.261467 0.438867
4 1 0.17609 0.515707 0.317307
15 1 0.914236 0.49818 0.614272
3 1 0.676097 0.515693 0.317258
43 1 0.183143 0.922387 0.742997
45 1 0.179381 0.760723 0.654749
36 1 0.196505 0.666031 0.671933
20 1 0.134742 0.800649 0.577027
24 1 0.333306 0.740426 0.347055
34 1 0.560692 0.799764 0.477578
19 1 0.447139 0.685287 0.41813
44 1 0.476216 0.759763 0.433965
25 1 0.935233 0.870183 0.361845
28 1 0.855404 0.770933 0.425007
ITEM: TIMESTEP
1000000
ITEM: NUMBER OF ATOMS
52
ITEM: BOX BOUNDS pp pp pp
-7.5000000000000002e-04 2.2460619762723756e-03
-7.5000000000000002e-04 2.2499999999999998e-03
-7.5000000000000002e-04 1.3713203435595999e-03
ITEM: ATOMS id type xs ys zs
31 1 0.980036 0.138401 0.0690401
37 1 0.107919 0.174555 0.112836
9 1 0.258548 0.155537 0.168193
42 1 0.531547 0.0888051 0.0702281
11 1 0.53011 0.160869 0.198394
51 1 0.626864 0.0968592 0.192064
48 1 0.592021 0.283935 0.123127
22 1 0.856949 0.168369 -0.0106151
38 1 0.684457 0.117657 0.221582
20 1 0.303282 0.415057 0.81223
24 1 0.402787 0.49789 0.818126
8 1 0.359152 0.406765 0.212291
7 1 0.859154 0.406221 0.212497
18 1 0.109521 0.815402 0.30518
49 1 0.0668494 0.647455 0.291072
43 1 0.071051 0.679085 0.0947786
10 1 0.015712 0.64079 0.0774776
33 1 0.219437 0.639499 0.26571
6 1 0.358466 0.906395 0.212552
21 1 0.482619 0.654944 0.145317
16 1 0.794717 0.845248 0.851226
5 1 0.858463 0.906303 0.212185
4 1 0.108589 0.155662 0.712236
36 1 0.146524 0.259227 0.328781
3 1 0.60858 0.156667 0.712211
34 1 0.344489 0.126715 0.51446
50 1 0.532922 0.147741 0.33967
12 1 0.854909 0.983986 0.750231
44 1 0.362976 0.318046 0.59355
47 1 0.334858 0.458674 0.637777
27 1 0.416812 0.456027 0.750829
19 1 0.309094 0.429421 0.736127
13 1 0.48299 0.401331 0.775477
15 1 0.610922 0.297463 0.337491
45 1 0.911288 0.31103 0.562664
14 1 0.927178 0.35868 0.795396
28 1 0.869474 0.434408 0.766261
25 1 0.881142 0.321243 0.780773
29 1 0.763088 0.405877 0.668964
46 1 0.885477 0.512757 0.61287
41 1 0.750099 0.42406 0.75786
2 1 0.109035 0.656246 0.712504
39 1 0.127867 0.770458 0.339359
32 1 0.433032 0.930462 0.677647
30 1 0.322524 0.930759 0.796626
23 1 0.400541 0.848785 0.623256
35 1 0.375599 0.81592 0.681749
1 1 0.609036 0.65608 0.711882
17 1 0.33304 0.650457 0.450389
40 1 0.558569 0.689791 0.33369
26 1 0.573039 0.836765 0.428971
52 1 0.836682 0.645305 0.416741
