ITEM: TIMESTEP
0
ITEM: NUMBER OF ATOMS
8
ITEM: BOX BOUNDS pp pp pp
-7.5000000000000002e-04 2.2499999999999998e-03
-7.5000000000000002e-04 2.2499999999999998e-03
-7.5000000000000002e-04 1.3713203435595999e-03
ITEM: ATOMS id c_2_stress[1] c_2_stress[2] c_2_stress[3]
1 4.72582e-11 4.72582e-11 9.45164e-11
2 4.72582e-11 4.72582e-11 9.45164e-11
3 4.72582e-11 4.72582e-11 9.45164e-11
4 4.67555e-11 4.67555e-11 9.3511e-11
8 4.72582e-11 4.72582e-11 9.45164e-11
7 4.72582e-11 4.72582e-11 9.45164e-11
6 4.72582e-11 4.72582e-11 9.45164e-11
5 4.72582e-11 4.72582e-11 9.45164e-11
ITEM: TIMESTEP
100000
ITEM: NUMBER OF ATOMS
8
ITEM: BOX BOUNDS pp pp pp
-7.5000000000000002e-04 2.2496061999900375e-03
-7.5000000000000002e-04 2.2499999999999998e-03
-7.5000000000000002e-04 1.3713203435595999e-03
ITEM: ATOMS id c_2_stress[1] c_2_stress[2] c_2_stress[3]
1 86093 6208.19 12416.4
2 86093 6208.19 12416.4
3 86093 6208.19 12416.4
4 86093 6208.19 12416.4
8 86093 6208.19 12416.4
7 86093 6208.19 12416.4
6 86093 6208.19 12416.4
5 86093 6208.19 12416.4
ITEM: TIMESTEP
200000
ITEM: NUMBER OF ATOMS
8
ITEM: BOX BOUNDS pp pp pp
-7.5000000000000002e-04 2.2492123999800751e-03
-7.5000000000000002e-04 2.2499999999999998e-03
-7.5000000000000002e-04 1.3713203435595999e-03
ITEM: ATOMS id c_2_stress[1] c_2_stress[2] c_2_stress[3]
1 243473 17559.8 35119.5
2 243473 17559.8 35119.5
3 243472 17559.8 35119.5
4 243472 17559.8 35119.5
8 243472 17559.8 35119.5
7 243472 17559.8 35119.5
6 243472 17559.8 35119.5
5 243472 17559.8 35119.5
ITEM: TIMESTEP
300000
ITEM: NUMBER OF ATOMS
11
ITEM: BOX BOUNDS pp pp pp
-7.5000000000000002e-04 2.2488185960321126e-03
-7.5000000000000002e-04 2.2499999999999998e-03
-7.5000000000000002e-04 1.3713203435595999e-03
ITEM: ATOMS id c_2_stress[1] c_2_stress[2] c_2_stress[3]
1 413386 31574.7 49679.6
11 -0 -0 -0
2 413386 31574.7 49679.6
9 -0 -0 -0
3 413108 31618.9 49650.9
4 413108 31618.9 49650.9
6 425247 18112.3 66263
5 442059 28218.6 66190.7
8 87170.1 63852.5 66207.4
7 28280.9 -1.29626e-06 -0
10 -0 -0 -0
ITEM: TIMESTEP
400000
ITEM: NUMBER OF ATOMS
11
ITEM: BOX BOUNDS pp pp pp
-7.5000000000000002e-04 2.2484247960221503e-03
-7.5000000000000002e-04 2.2499999999999998e-03
-7.5000000000000002e-04 1.3713203435595999e-03
ITEM: ATOMS id c_2_stress[1] c_2_stress[2] c_2_stress[3]
1 646485 51142 63290.2
11 -0 -0 -0
2 646485 51142 63290.2
9 -0 -0 -0
3 646181 51144.8 63183.1
4 646181 51144.8 63183.1
6 667192 30472.9 97816.9
5 686924 68911.9 84705.6
8 246423 93541.7 70424.1
7 134477 -5.7827e-10 -0
10 -0 -0 -0
ITEM: TIMESTEP
500000
ITEM: NUMBER OF ATOMS
19
ITEM: BOX BOUNDS pp pp pp
-7.5000000000000002e-04 2.2480309920741878e-03
-7.5000000000000002e-04 2.2499999999999998e-03
-7.5000000000000002e-04 1.3713203435595999e-03
ITEM: ATOMS id c_2_stress[1] c_2_stress[2] c_2_stress[3]
1 833387 57212.2 88873.3
11 -0 -0 -0
13 -0 -0 -0
14 -0 -0 -0
2 833387 57212.2 88873.3
9 -0 -0 -0
12 -0 -0 -0
17 -0 -0 -0
3 833355 57213.6 88656.5
15 -0 -0 -0
4 833355 57213.6 88656.5
18 -0 -0 -0
8 414607 105306 178158
7 284048 -8.32681e-06 -6.40622e-15
6 6408.51 2.39759e-08 -2.00685e-16
16 -0 -0 -0
5 88436.5 107371 176902
19 -0 -0 -0
10 -0 -0 -0
ITEM: TIMESTEP
600000
ITEM: NUMBER OF ATOMS
36
ITEM: BOX BOUNDS pp pp pp
-7.5000000000000002e-04 2.2476371841882252e-03
-7.5000000000000002e-04 2.2499999999999998e-03
-7.5000000000000002e-04 1.3713203435595999e-03
ITEM: ATOMS id c_2_stress[1] c_2_stress[2] c_2_stress[3]
20 -0 -0 -0
35 -0 -0 -0
24 -0 -0 -0
18 -0 -0 -0
16 -0 -0 -0
1 54126.8 11586.2 8838.9
2 106961 99970.2 141970
23 -0 -0 -0
3 95777 78708.4 134822
14 -0 -0 -0
4 27840.4 941.227 1678.58
29 -0 -0 -0
8 502422 90625.8 122407
25 -0 -0 -0
11 -0 -0 -0
13 -0 -0 -0
32 -0 -0 -0
7 476804 17787.4 8114.28
9 -0 -0 -0
22 -0 -0 -0
26 -0 -0 -0
36 -0 -0 -0
6 100319 27031.1 40943.3
27 -0 -0 -0
12 -0 -0 -0
5 177768 74835.5 118610
21 -0 -0 -0
34 -0 -0 -0
19 -0 -0 -0
28 -0 -0 -0
33 -0 -0 -0
15 -0 -0 -0
17 -0 -0 -0
10 -0 -0 -0
30 -0 -0 -0
31 -0 -0 -0
ITEM: TIMESTEP
700000
ITEM: NUMBER OF ATOMS
36
ITEM: BOX BOUNDS pp pp pp
-7.5000000000000002e-04 2.2472433841782629e-03
-7.5000000000000002e-04 2.2499999999999998e-03
-7.5000000000000002e-04 1.3713203435595999e-03
ITEM: ATOMS id c_2_stress[1] c_2_stress[2] c_2_stress[3]
7 678473 33154.1 25449.6
8 749553 104681 152983
18 -0 -0 -0
26 -0 -0 -0
24 -0 -0 -0
35 -0 -0 -0
33 -0 -0 -0
16 -0 -0 -0
5 313810 120329 176504
17 -0 -0 -0
6 267253 20446.7 74288
11 -0 -0 -0
25 -0 -0 -0
9 -0 -0 -0
10 -0 -0 -0
22 -0 -0 -0
19 -0 -0 -0
32 -0 -0 -0
13 -0 -0 -0
21 -0 -0 -0
20 -0 -0 -0
15 -0 -0 -0
36 -0 -0 -0
28 -0 -0 -0
23 -0 -0 -0
29 -0 -0 -0
34 -0 -0 -0
14 -0 -0 -0
12 -0 -0 -0
2 186199 81333.5 170290
31 -0 -0 -0
1 93604.7 66595.6 25499.1
27 -0 -0 -0
30 -0 -0 -0
4 124439 12844.5 20961.3
3 196446 160623 227646
ITEM: TIMESTEP
800000
ITEM: NUMBER OF ATOMS
36
ITEM: BOX BOUNDS pp pp pp
-7.5000000000000002e-04 2.2468495841683005e-03
-7.5000000000000002e-04 2.2499999999999998e-03
-7.5000000000000002e-04 1.3713203435595999e-03
ITEM: ATOMS id c_2_stress[1] c_2_stress[2] c_2_stress[3]
19 -0 -0 -0
12 -0 -0 -0
14 -0 -0 -0
4 267008 32024.9 73761.8
9 -0 -0 -0
13 -0 -0 -0
24 -0 -0 -0
3 460511 151843 304070
16 -0 -0 -0
2 459908 167104 380571
17 -0 -0 -0
26 -0 -0 -0
21 -0 -0 -0
1 227877 10219 22802.7
33 -0 -0 -0
23 -0 -0 -0
30 -0 -0 -0
6 489671 38807.7 104416
5 555471 226825 323857
22 -0 -0 -0
10 -0 -0 -0
31 -0 -0 -0
32 -0 -0 -0
34 -0 -0 -0
15 -0 -0 -0
29 -0 -0 -0
27 -0 -0 -0
8 1.01862e+06 97402.3 178717
20 -0 -0 -0
25 -0 -0 -0
11 -0 -0 -0
7 992527 117749 177058
18 -0 -0 -0
28 -0 -0 -0
36 -0 -0 -0
35 -0 -0 -0
ITEM: TIMESTEP
900000
ITEM: NUMBER OF ATOMS
45
ITEM: BOX BOUNDS pp pp pp
-7.5000000000000002e-04 2.2464557802203381e-03
-7.5000000000000002e-04 2.2499999999999998e-03
-7.5000000000000002e-04 1.3713203435595999e-03
ITEM: ATOMS id c_2_stress[1] c_2_stress[2] c_2_stress[3]
17 -0 -0 -0
18 -0 -0 -0
14 -0 -0 -0
35 -0 -0 -0
42 -0 -0 -0
39 -0 -0 -0
32 -0 -0 -0
37 -0 -0 -0
6 614198 17825.3 20333.2
11 -0 -0 -0
30 -0 -0 -0
13 -0 -0 -0
23 -0 -0 -0
5 677609 31367 69734.6
38 -0 -0 -0
16 -0 -0 -0
31 -0 -0 -0
22 -0 -0 -0
8 44511 -7.94191 0.0521788
27 -0 -0 -0
29 -0 -0 -0
7 66210.3 51472.7 83304.3
41 -0 -0 -0
10 -0 -0 -0
2 441581 73035.9 77991
21 -0 -0 -0
26 -0 -0 -0
33 -0 -0 -0
40 -0 -0 -0
1 449501 22770.1 41201.3
9 -0 -0 -0
12 -0 -0 -0
4 418914 53231 23760.8
15 -0 -0 -0
3 433710 23933.3 29253
43 -0 -0 -0
45 -0 -0 -0
36 -0 -0 -0
20 -0 -0 -0
24 -0 -0 -0
34 -0 -0 -0
19 -0 -0 -0
44 -0 -0 -0
25 -0 -0 -0
28 -0 -0 -0
ITEM: TIMESTEP
1000000
ITEM: NUMBER OF ATOMS
52
ITEM: BOX BOUNDS pp pp pp
-7.5000000000000002e-04 2.2460619762723756e-03
-7.5000000000000002e-04 2.2499999999999998e-03
-7.5000000000000002e-04 1.3713203435595999e-03
ITEM: ATOMS id c_2_stress[1] c_2_stress[2] c_2_stress[3]
31 -0 -0 -0
37 -0 -0 -0
9 -0 -0 -0
42 -0 -0 -0
11 -0 -0 -0
51 -0 -0 -0
48 -0 -0 -0
22 -0 -0 -0
38 -0 -0 -0
20 -0 -0 -0
24 -0 -0 -0
8 183732 28929.1 35165.7
7 183330 28573.6 43364.6
18 -0 -0 -0
49 -0 -0 -0
43 -0 -0 -0
10 -0 -0 -0
33 -0 -0 -0
6 64314.4 -2.44027 -10.2095
21 -0 -0 -0
16 -0 -0 -0
5 103556 45047.7 72489.9
4 635546 209903 17769.9
36 -0 -0 -0
3 638927 228984 53551.3
34 -0 -0 -0
50 -0 -0 -0
12 -0 -0 -0
44 -0 -0 -0
47 -0 -0 -0
27 -0 -0 -0
19 -0 -0 -0
13 -0 -0 -0
15 -0 -0 -0
45 -0 -0 -0
14 -0 -0 -0
28 -0 -0 -0
25 -0 -0 -0
29 -0 -0 -0
46 -0 -0 -0
41 -0 -0 -0
2 620441 234537 45439.9
39 -0 -0 -0
32 -0 -0 -0
30 -0 -0 -0
23 -0 -0 -0
35 -0 -0 -0
1 618057 213253 36063.9
17 -0 -0 -0
40 -0 -0 -0
26 -0 -0 -0
52 -0 -0 -0
