ITEM: TIMESTEP
1000000
ITEM: NUMBER OF ATOMS
52
ITEM: BOX BOUNDS pp pp pp
-7.5000000000000002e-04 2.2460619762723756e-03
-7.5000000000000002e-04 2.2499999999999998e-03
-7.5000000000000002e-04 1.3713203435595999e-03
ITEM: ATOMS id f_3[1] f_3[2] f_3[3]
31 -1.17868e+07 116701 0
37 -1.05987e+07 104937 0
9 -7.12631e+06 70557.5 0
42 -1.236e+07 122376 0
11 -9.79374e+06 96967.8 0
51 -9.6007e+06 95056.4 0
48 -4.44392e+06 43999.2 0
22 -1.02995e+07 101976 0
38 -1.26281e+07 125031 0
20 -9.37431e+06 92815 0
24 -1.10648e+07 109552 0
8 -845719 8373.45 1
7 -948334 9389.44 1
18 -5.41389e+06 53602.9 0
49 -9.67354e+06 95777.6 0
43 -5.9292e+06 58705 0
10 -6.98521e+06 69160.5 0
33 -8.26147e+06 81796.7 0
6 -846326 8379.46 2
21 -4.2116e+06 41699 0
16 -5.11504e+06 50643.9 0
5 -850014 8415.98 0
4 -1.0112e+06 10011.9 1
36 -1.18205e+07 117035 0
3 -812123 8040.82 0
34 -9.46161e+06 93679.3 0
50 -5.7607e+06 57036.6 0
12 -7.71358e+06 76372.1 0
44 -1.22472e+07 121259 0
47 -1.00578e+07 99581.7 0
27 -1.19601e+07 118417 0
19 -1.21505e+07 120302 0
13 -1.02697e+07 101681 0
15 -9.74594e+06 96494.5 0
45 -1.04133e+07 103102 0
14 -1.24024e+07 122796 0
28 -9.4518e+06 93582.1 0
25 -1.20923e+07 119725 0
29 -1.12721e+07 111605 0
46 -1.06152e+07 105101 0
41 -1.069e+07 105841 0
2 -948947 9395.52 0
39 -1.00492e+07 99497 0
32 -5.38865e+06 53352.9 0
30 -9.21665e+06 91253.9 0
23 -6.71774e+06 66512.3 0
35 -1.23851e+07 122624 0
1 -923665 9145.2 1
17 -4.66526e+06 46190.7 0
40 -9.38932e+06 92963.6 0
26 -1.11043e+07 109944 0
52 -1.06928e+07 105869 0
