ITEM: TIMESTEP
400000
ITEM: NUMBER OF ATOMS
11
ITEM: BOX BOUNDS pp pp pp
-7.5000000000000002e-04 2.2484247960221503e-03
-7.5000000000000002e-04 2.2499999999999998e-03
-7.5000000000000002e-04 1.3713203435595999e-03
ITEM: ATOMS id f_3[1] f_3[2] f_3[3]
1 -771321 7636.85 0
11 -9.79374e+06 96967.8 0
2 -948947 9395.52 0
9 -7.12631e+06 70557.5 0
3 -812123 8040.82 0
4 -893070 8842.27 0
6 -608839 6028.11 0
5 -850014 8415.98 0
8 -834093 8258.34 0
7 -948334 9389.44 1
10 -6.98521e+06 69160.5 0
